# vtk DataFile Version 2.0
Interface mesh generated by generateVTK.m
ASCII
DATASET UNSTRUCTURED_GRID

POINTS 520 float
   4.398e+00  -5.000e-01   0.000e+00
   4.409e+00  -4.890e-01   0.000e+00
   4.398e+00  -5.000e-01   0.000e+00
   4.409e+00  -4.890e-01   0.000e+00
   4.420e+00  -4.778e-01   0.000e+00
   4.424e+00  -4.737e-01   0.000e+00
   4.420e+00  -4.778e-01   0.000e+00
   4.424e+00  -4.737e-01   0.000e+00
   4.428e+00  -4.697e-01   0.000e+00
   4.440e+00  -4.583e-01   0.000e+00
   4.428e+00  -4.697e-01   0.000e+00
   4.440e+00  -4.583e-01   0.000e+00
   4.451e+00  -4.467e-01   0.000e+00
   4.455e+00  -4.430e-01   0.000e+00
   4.451e+00  -4.467e-01   0.000e+00
   4.455e+00  -4.430e-01   0.000e+00
   4.459e+00  -4.394e-01   0.000e+00
   4.470e+00  -4.276e-01   0.000e+00
   4.459e+00  -4.394e-01   0.000e+00
   4.470e+00  -4.276e-01   0.000e+00
   4.482e+00  -4.156e-01   0.000e+00
   4.486e+00  -4.123e-01   0.000e+00
   4.482e+00  -4.156e-01   0.000e+00
   4.486e+00  -4.123e-01   0.000e+00
   4.489e+00  -4.091e-01   0.000e+00
   4.501e+00  -3.970e-01   0.000e+00
   4.489e+00  -4.091e-01   0.000e+00
   4.501e+00  -3.970e-01   0.000e+00
   4.514e+00  -3.845e-01   0.000e+00
   4.517e+00  -3.816e-01   0.000e+00
   4.514e+00  -3.845e-01   0.000e+00
   4.517e+00  -3.816e-01   0.000e+00
   4.519e+00  -3.788e-01   0.000e+00
   4.532e+00  -3.663e-01   0.000e+00
   4.519e+00  -3.788e-01   0.000e+00
   4.532e+00  -3.663e-01   0.000e+00
   4.545e+00  -3.534e-01   0.000e+00
   4.547e+00  -3.509e-01   0.000e+00
   4.545e+00  -3.534e-01   0.000e+00
   4.547e+00  -3.509e-01   0.000e+00
   4.550e+00  -3.485e-01   0.000e+00
   4.563e+00  -3.356e-01   0.000e+00
   4.550e+00  -3.485e-01   0.000e+00
   4.563e+00  -3.356e-01   0.000e+00
   4.576e+00  -3.223e-01   0.000e+00
   4.578e+00  -3.202e-01   0.000e+00
   4.576e+00  -3.223e-01   0.000e+00
   4.578e+00  -3.202e-01   0.000e+00
   4.580e+00  -3.182e-01   0.000e+00
   4.593e+00  -3.049e-01   0.000e+00
   4.580e+00  -3.182e-01   0.000e+00
   4.593e+00  -3.049e-01   0.000e+00
   4.607e+00  -2.912e-01   0.000e+00
   4.609e+00  -2.895e-01   0.000e+00
   4.607e+00  -2.912e-01   0.000e+00
   4.609e+00  -2.895e-01   0.000e+00
   4.610e+00  -2.879e-01   0.000e+00
   4.624e+00  -2.742e-01   0.000e+00
   4.610e+00  -2.879e-01   0.000e+00
   4.624e+00  -2.742e-01   0.000e+00
   4.638e+00  -2.601e-01   0.000e+00
   4.639e+00  -2.588e-01   0.000e+00
   4.638e+00  -2.601e-01   0.000e+00
   4.639e+00  -2.588e-01   0.000e+00
   4.641e+00  -2.576e-01   0.000e+00
   4.655e+00  -2.435e-01   0.000e+00
   4.641e+00  -2.576e-01   0.000e+00
   4.655e+00  -2.435e-01   0.000e+00
   4.669e+00  -2.290e-01   0.000e+00
   4.670e+00  -2.281e-01   0.000e+00
   4.669e+00  -2.290e-01   0.000e+00
   4.670e+00  -2.281e-01   0.000e+00
   4.671e+00  -2.273e-01   0.000e+00
   4.685e+00  -2.128e-01   0.000e+00
   4.671e+00  -2.273e-01   0.000e+00
   4.685e+00  -2.128e-01   0.000e+00
   4.700e+00  -1.979e-01   0.000e+00
   4.701e+00  -1.974e-01   0.000e+00
   4.700e+00  -1.979e-01   0.000e+00
   4.701e+00  -1.974e-01   0.000e+00
   4.701e+00  -1.970e-01   0.000e+00
   4.716e+00  -1.821e-01   0.000e+00
   4.701e+00  -1.970e-01   0.000e+00
   4.716e+00  -1.821e-01   0.000e+00
   4.732e+00  -1.668e-01   0.000e+00
   4.732e+00  -1.667e-01   0.000e+00
   4.732e+00  -1.668e-01   0.000e+00
   4.732e+00  -1.667e-01   0.000e+00
   4.732e+00  -1.667e-01   0.000e+00
   4.747e+00  -1.514e-01   0.000e+00
   4.732e+00  -1.667e-01   0.000e+00
   4.747e+00  -1.514e-01   0.000e+00
   4.762e+00  -1.364e-01   0.000e+00
   4.762e+00  -1.360e-01   0.000e+00
   4.762e+00  -1.364e-01   0.000e+00
   4.762e+00  -1.360e-01   0.000e+00
   4.763e+00  -1.357e-01   0.000e+00
   4.778e+00  -1.207e-01   0.000e+00
   4.763e+00  -1.357e-01   0.000e+00
   4.778e+00  -1.207e-01   0.000e+00
   4.792e+00  -1.061e-01   0.000e+00
   4.793e+00  -1.053e-01   0.000e+00
   4.792e+00  -1.061e-01   0.000e+00
   4.793e+00  -1.053e-01   0.000e+00
   4.794e+00  -1.046e-01   0.000e+00
   4.808e+00  -8.998e-02   0.000e+00
   4.794e+00  -1.046e-01   0.000e+00
   4.808e+00  -8.998e-02   0.000e+00
   4.823e+00  -7.576e-02   0.000e+00
   4.824e+00  -7.463e-02   0.000e+00
   4.823e+00  -7.576e-02   0.000e+00
   4.824e+00  -7.463e-02   0.000e+00
   4.825e+00  -7.348e-02   0.000e+00
   4.839e+00  -5.929e-02   0.000e+00
   4.825e+00  -7.348e-02   0.000e+00
   4.839e+00  -5.929e-02   0.000e+00
   4.853e+00  -4.545e-02   0.000e+00
   4.854e+00  -4.394e-02   0.000e+00
   4.853e+00  -4.545e-02   0.000e+00
   4.854e+00  -4.394e-02   0.000e+00
   4.856e+00  -4.238e-02   0.000e+00
   4.870e+00  -2.859e-02   0.000e+00
   4.856e+00  -4.238e-02   0.000e+00
   4.870e+00  -2.859e-02   0.000e+00
   4.883e+00  -1.515e-02   0.000e+00
   4.885e+00  -1.324e-02   0.000e+00
   4.883e+00  -1.515e-02   0.000e+00
   4.885e+00  -1.324e-02   0.000e+00
   4.887e+00  -1.128e-02   0.000e+00
   4.901e+00   2.109e-03   0.000e+00
   4.887e+00  -1.128e-02   0.000e+00
   4.901e+00   2.109e-03   0.000e+00
   4.914e+00   1.515e-02   0.000e+00
   4.916e+00   1.746e-02   0.000e+00
   4.914e+00   1.515e-02   0.000e+00
   4.916e+00   1.746e-02   0.000e+00
   4.918e+00   1.982e-02   0.000e+00
   4.931e+00   3.281e-02   0.000e+00
   4.918e+00   1.982e-02   0.000e+00
   4.931e+00   3.281e-02   0.000e+00
   4.944e+00   4.545e-02   0.000e+00
   4.947e+00   4.815e-02   0.000e+00
   4.944e+00   4.545e-02   0.000e+00
   4.947e+00   4.815e-02   0.000e+00
   4.949e+00   5.092e-02   0.000e+00
   4.962e+00   6.350e-02   0.000e+00
   4.949e+00   5.092e-02   0.000e+00
   4.962e+00   6.350e-02   0.000e+00
   4.974e+00   7.576e-02   0.000e+00
   4.977e+00   7.885e-02   0.000e+00
   4.974e+00   7.576e-02   0.000e+00
   4.977e+00   7.885e-02   0.000e+00
   4.981e+00   8.203e-02   0.000e+00
   4.993e+00   9.420e-02   0.000e+00
   4.981e+00   8.203e-02   0.000e+00
   4.993e+00   9.420e-02   0.000e+00
   5.005e+00   1.061e-01   0.000e+00
   5.008e+00   1.095e-01   0.000e+00
   5.005e+00   1.061e-01   0.000e+00
   5.008e+00   1.095e-01   0.000e+00
   5.012e+00   1.131e-01   0.000e+00
   5.023e+00   1.249e-01   0.000e+00
   5.012e+00   1.131e-01   0.000e+00
   5.023e+00   1.249e-01   0.000e+00
   5.035e+00   1.364e-01   0.000e+00
   5.039e+00   1.402e-01   0.000e+00
   5.035e+00   1.364e-01   0.000e+00
   5.039e+00   1.402e-01   0.000e+00
   5.043e+00   1.442e-01   0.000e+00
   5.054e+00   1.556e-01   0.000e+00
   5.043e+00   1.442e-01   0.000e+00
   5.054e+00   1.556e-01   0.000e+00
   5.065e+00   1.667e-01   0.000e+00
   5.070e+00   1.709e-01   0.000e+00
   5.065e+00   1.667e-01   0.000e+00
   5.070e+00   1.709e-01   0.000e+00
   5.074e+00   1.753e-01   0.000e+00
   5.085e+00   1.863e-01   0.000e+00
   5.074e+00   1.753e-01   0.000e+00
   5.085e+00   1.863e-01   0.000e+00
   5.096e+00   1.970e-01   0.000e+00
   5.100e+00   2.016e-01   0.000e+00
   5.096e+00   1.970e-01   0.000e+00
   5.100e+00   2.016e-01   0.000e+00
   5.105e+00   2.064e-01   0.000e+00
   5.116e+00   2.170e-01   0.000e+00
   5.105e+00   2.064e-01   0.000e+00
   5.116e+00   2.170e-01   0.000e+00
   5.126e+00   2.273e-01   0.000e+00
   5.131e+00   2.323e-01   0.000e+00
   5.126e+00   2.273e-01   0.000e+00
   5.131e+00   2.323e-01   0.000e+00
   5.136e+00   2.375e-01   0.000e+00
   5.146e+00   2.477e-01   0.000e+00
   5.136e+00   2.375e-01   0.000e+00
   5.146e+00   2.477e-01   0.000e+00
   5.156e+00   2.576e-01   0.000e+00
   5.162e+00   2.630e-01   0.000e+00
   5.156e+00   2.576e-01   0.000e+00
   5.162e+00   2.630e-01   0.000e+00
   5.167e+00   2.686e-01   0.000e+00
   5.177e+00   2.784e-01   0.000e+00
   5.167e+00   2.686e-01   0.000e+00
   5.177e+00   2.784e-01   0.000e+00
   5.187e+00   2.879e-01   0.000e+00
   5.192e+00   2.937e-01   0.000e+00
   5.187e+00   2.879e-01   0.000e+00
   5.192e+00   2.937e-01   0.000e+00
   5.198e+00   2.997e-01   0.000e+00
   5.208e+00   3.091e-01   0.000e+00
   5.198e+00   2.997e-01   0.000e+00
   5.208e+00   3.091e-01   0.000e+00
   5.217e+00   3.182e-01   0.000e+00
   5.223e+00   3.244e-01   0.000e+00
   5.217e+00   3.182e-01   0.000e+00
   5.223e+00   3.244e-01   0.000e+00
   5.230e+00   3.308e-01   0.000e+00
   5.239e+00   3.398e-01   0.000e+00
   5.230e+00   3.308e-01   0.000e+00
   5.239e+00   3.398e-01   0.000e+00
   5.247e+00   3.485e-01   0.000e+00
   5.254e+00   3.551e-01   0.000e+00
   5.247e+00   3.485e-01   0.000e+00
   5.254e+00   3.551e-01   0.000e+00
   5.261e+00   3.619e-01   0.000e+00
   5.269e+00   3.705e-01   0.000e+00
   5.261e+00   3.619e-01   0.000e+00
   5.269e+00   3.705e-01   0.000e+00
   5.278e+00   3.788e-01   0.000e+00
   5.285e+00   3.858e-01   0.000e+00
   5.278e+00   3.788e-01   0.000e+00
   5.285e+00   3.858e-01   0.000e+00
   5.292e+00   3.930e-01   0.000e+00
   5.300e+00   4.012e-01   0.000e+00
   5.292e+00   3.930e-01   0.000e+00
   5.300e+00   4.012e-01   0.000e+00
   5.308e+00   4.091e-01   0.000e+00
   5.315e+00   4.165e-01   0.000e+00
   5.308e+00   4.091e-01   0.000e+00
   5.315e+00   4.165e-01   0.000e+00
   5.323e+00   4.241e-01   0.000e+00
   5.331e+00   4.319e-01   0.000e+00
   5.323e+00   4.241e-01   0.000e+00
   5.331e+00   4.319e-01   0.000e+00
   5.338e+00   4.394e-01   0.000e+00
   5.346e+00   4.472e-01   0.000e+00
   5.338e+00   4.394e-01   0.000e+00
   5.346e+00   4.472e-01   0.000e+00
   5.354e+00   4.552e-01   0.000e+00
   5.361e+00   4.626e-01   0.000e+00
   5.354e+00   4.552e-01   0.000e+00
   5.361e+00   4.626e-01   0.000e+00
   5.369e+00   4.697e-01   0.000e+00
   5.377e+00   4.779e-01   0.000e+00
   5.369e+00   4.697e-01   0.000e+00
   5.377e+00   4.779e-01   0.000e+00
   5.385e+00   4.863e-01   0.000e+00
   5.392e+00   4.933e-01   0.000e+00
   5.385e+00   4.863e-01   0.000e+00
   5.392e+00   4.933e-01   0.000e+00
   4.409e+00  -4.890e-01   0.000e+00
   4.420e+00  -4.778e-01   0.000e+00
   4.409e+00  -4.890e-01   0.000e+00
   4.420e+00  -4.778e-01   0.000e+00
   4.424e+00  -4.737e-01   0.000e+00
   4.428e+00  -4.697e-01   0.000e+00
   4.424e+00  -4.737e-01   0.000e+00
[...]
CELL_DATA 260
VECTORS normal float
  -7.068e-01   7.074e-01   0.000e+00
   7.068e-01  -7.074e-01   0.000e+00
  -7.068e-01   7.074e-01   0.000e+00
   7.068e-01  -7.074e-01   0.000e+00
  -7.068e-01   7.074e-01   0.000e+00
   7.068e-01  -7.074e-01   0.000e+00
  -7.068e-01   7.074e-01   0.000e+00
   7.068e-01  -7.074e-01   0.000e+00
  -7.068e-01   7.074e-01   0.000e+00
   7.068e-01  -7.074e-01   0.000e+00
  -7.068e-01   7.074e-01   0.000e+00
   7.068e-01  -7.074e-01   0.000e+00
  -7.068e-01   7.074e-01   0.000e+00
   7.068e-01  -7.074e-01   0.000e+00
  -7.068e-01   7.074e-01   0.000e+00
   7.068e-01  -7.074e-01   0.000e+00
  -7.068e-01   7.074e-01   0.000e+00
   7.068e-01  -7.074e-01   0.000e+00
  -7.068e-01   7.074e-01   0.000e+00
   7.068e-01  -7.074e-01   0.000e+00
  -7.068e-01   7.074e-01   0.000e+00
   7.068e-01  -7.074e-01   0.000e+00
  -7.068e-01   7.074e-01   0.000e+00
   7.068e-01  -7.074e-01   0.000e+00
  -7.068e-01   7.074e-01   0.000e+00
   7.068e-01  -7.074e-01   0.000e+00
  -7.068e-01   7.074e-01   0.000e+00
   7.068e-01  -7.074e-01   0.000e+00
  -7.068e-01   7.074e-01   0.000e+00
   7.068e-01  -7.074e-01   0.000e+00
  -7.068e-01   7.074e-01   0.000e+00
   7.068e-01  -7.074e-01   0.000e+00
  -7.068e-01   7.074e-01   0.000e+00
   7.068e-01  -7.074e-01   0.000e+00
  -7.068e-01   7.074e-01   0.000e+00
   7.068e-01  -7.074e-01   0.000e+00
  -7.068e-01   7.074e-01   0.000e+00
   7.068e-01  -7.074e-01   0.000e+00
  -7.068e-01   7.074e-01   0.000e+00
   7.068e-01  -7.074e-01   0.000e+00
  -7.068e-01   7.074e-01   0.000e+00
   7.068e-01  -7.074e-01   0.000e+00
  -7.068e-01   7.074e-01   0.000e+00
   7.068e-01  -7.074e-01   0.000e+00
  -7.068e-01   7.074e-01   0.000e+00
   7.068e-01  -7.074e-01   0.000e+00
  -7.068e-01   7.074e-01   0.000e+00
   7.068e-01  -7.074e-01   0.000e+00
  -7.068e-01   7.074e-01   0.000e+00
   7.068e-01  -7.074e-01   0.000e+00
  -7.068e-01   7.074e-01   0.000e+00
   7.068e-01  -7.074e-01   0.000e+00
  -7.068e-01   7.074e-01   0.000e+00
   7.068e-01  -7.074e-01   0.000e+00
  -7.068e-01   7.074e-01   0.000e+00
   7.068e-01  -7.074e-01   0.000e+00
  -7.068e-01   7.074e-01   0.000e+00
   7.068e-01  -7.074e-01   0.000e+00
  -7.068e-01   7.074e-01   0.000e+00
   7.068e-01  -7.074e-01   0.000e+00
  -7.068e-01   7.074e-01   0.000e+00
   7.068e-01  -7.074e-01   0.000e+00
  -7.068e-01   7.074e-01   0.000e+00
   7.068e-01  -7.074e-01   0.000e+00
  -7.068e-01   7.074e-01   0.000e+00
   7.068e-01  -7.074e-01   0.000e+00
  -7.068e-01   7.074e-01   0.000e+00
   7.068e-01  -7.074e-01   0.000e+00
  -7.068e-01   7.074e-01   0.000e+00
   7.068e-01  -7.074e-01   0.000e+00
  -7.068e-01   7.074e-01   0.000e+00
   7.068e-01  -7.074e-01   0.000e+00
  -7.068e-01   7.074e-01   0.000e+00
   7.068e-01  -7.074e-01   0.000e+00
  -7.068e-01   7.074e-01   0.000e+00
   7.068e-01  -7.074e-01   0.000e+00
  -7.068e-01   7.074e-01   0.000e+00
   7.068e-01  -7.074e-01   0.000e+00
  -7.068e-01   7.074e-01   0.000e+00
   7.068e-01  -7.074e-01   0.000e+00
  -7.068e-01   7.074e-01   0.000e+00
   7.068e-01  -7.074e-01   0.000e+00
  -7.068e-01   7.074e-01   0.000e+00
   7.068e-01  -7.074e-01   0.000e+00
  -7.068e-01   7.074e-01   0.000e+00
   7.068e-01  -7.074e-01   0.000e+00
  -7.068e-01   7.074e-01   0.000e+00
   7.068e-01  -7.074e-01   0.000e+00
  -7.068e-01   7.074e-01   0.000e+00
   7.068e-01  -7.074e-01   0.000e+00
  -7.068e-01   7.074e-01   0.000e+00
   7.068e-01  -7.074e-01   0.000e+00
  -7.068e-01   7.074e-01   0.000e+00
   7.068e-01  -7.074e-01   0.000e+00
  -7.068e-01   7.074e-01   0.000e+00
   7.068e-01  -7.074e-01   0.000e+00
  -7.068e-01   7.074e-01   0.000e+00
   7.068e-01  -7.074e-01   0.000e+00
  -7.068e-01   7.074e-01   0.000e+00
   7.068e-01  -7.074e-01   0.000e+00
  -7.068e-01   7.074e-01   0.000e+00
   7.068e-01  -7.074e-01   0.000e+00
  -7.068e-01   7.074e-01   0.000e+00
   7.068e-01  -7.074e-01   0.000e+00
  -7.068e-01   7.074e-01   0.000e+00
   7.068e-01  -7.074e-01   0.000e+00
  -7.068e-01   7.074e-01   0.000e+00
   7.068e-01  -7.074e-01   0.000e+00
  -7.068e-01   7.074e-01   0.000e+00
   7.068e-01  -7.074e-01   0.000e+00
  -7.068e-01   7.074e-01   0.000e+00
   7.068e-01  -7.074e-01   0.000e+00
  -7.068e-01   7.074e-01   0.000e+00
   7.068e-01  -7.074e-01   0.000e+00
  -7.068e-01   7.074e-01   0.000e+00
   7.068e-01  -7.074e-01   0.000e+00
  -7.068e-01   7.074e-01   0.000e+00
   7.068e-01  -7.074e-01   0.000e+00
  -7.068e-01   7.074e-01   0.000e+00
   7.068e-01  -7.074e-01   0.000e+00
  -7.068e-01   7.074e-01   0.000e+00
   7.068e-01  -7.074e-01   0.000e+00
  -7.068e-01   7.074e-01   0.000e+00
   7.068e-01  -7.074e-01   0.000e+00
  -7.068e-01   7.074e-01   0.000e+00
   7.068e-01  -7.074e-01   0.000e+00
  -7.068e-01   7.074e-01   0.000e+00
   7.068e-01  -7.074e-01   0.000e+00
  -7.068e-01   7.074e-01   0.000e+00
   7.068e-01  -7.074e-01   0.000e+00
  -7.068e-01   7.074e-01   0.000e+00
   7.068e-01  -7.074e-01   0.000e+00
  -7.068e-01   7.074e-01   0.000e+00
   7.068e-01  -7.074e-01   0.000e+00
  -7.068e-01   7.074e-01   0.000e+00
   7.068e-01  -7.074e-01   0.000e+00
  -7.068e-01   7.074e-01   0.000e+00
   7.068e-01  -7.074e-01   0.000e+00
  -7.068e-01   7.074e-01   0.000e+00
   7.068e-01  -7.074e-01   0.000e+00
  -7.068e-01   7.074e-01   0.000e+00
   7.068e-01  -7.074e-01   0.000e+00
  -7.068e-01   7.074e-01   0.000e+00
   7.068e-01  -7.074e-01   0.000e+00
  -7.068e-01   7.074e-01   0.000e+00
   7.068e-01  -7.074e-01   0.000e+00
  -7.068e-01   7.074e-01   0.000e+00
   7.068e-01  -7.074e-01   0.000e+00
  -7.068e-01   7.074e-01   0.000e+00
   7.068e-01  -7.074e-01   0.000e+00
  -7.068e-01   7.074e-01   0.000e+00
   7.068e-01  -7.074e-01   0.000e+00
  -7.068e-01   7.074e-01   0.000e+00
   7.068e-01  -7.074e-01   0.000e+00
  -7.068e-01   7.074e-01   0.000e+00
   7.068e-01  -7.074e-01   0.000e+00
  -7.068e-01   7.074e-01   0.000e+00
   7.068e-01  -7.074e-01   0.000e+00
  -7.068e-01   7.074e-01   0.000e+00
   7.068e-01  -7.074e-01   0.000e+00
  -7.068e-01   7.074e-01   0.000e+00
   7.068e-01  -7.074e-01   0.000e+00
  -7.068e-01   7.074e-01   0.000e+00
   7.068e-01  -7.074e-01   0.000e+00
  -7.068e-01   7.074e-01   0.000e+00
   7.068e-01  -7.074e-01   0.000e+00
  -7.068e-01   7.074e-01   0.000e+00
   7.068e-01  -7.074e-01   0.000e+00
  -7.068e-01   7.074e-01   0.000e+00
   7.068e-01  -7.074e-01   0.000e+00
  -7.068e-01   7.074e-01   0.000e+00
   7.068e-01  -7.074e-01   0.000e+00
  -7.068e-01   7.074e-01   0.000e+00
   7.068e-01  -7.074e-01   0.000e+00
  -7.068e-01   7.074e-01   0.000e+00
   7.068e-01  -7.074e-01   0.000e+00
  -7.068e-01   7.074e-01   0.000e+00
   7.068e-01  -7.074e-01   0.000e+00
  -7.068e-01   7.074e-01   0.000e+00
   7.068e-01  -7.074e-01   0.000e+00
  -7.068e-01   7.074e-01   0.000e+00
   7.068e-01  -7.074e-01   0.000e+00
  -7.068e-01   7.074e-01   0.000e+00
   7.068e-01  -7.074e-01   0.000e+00
  -7.068e-01   7.074e-01   0.000e+00
   7.068e-01  -7.074e-01   0.000e+00
  -7.068e-01   7.074e-01   0.000e+00
   7.068e-01  -7.074e-01   0.000e+00
  -7.068e-01   7.074e-01   0.000e+00
   7.068e-01  -7.074e-01   0.000e+00
  -7.068e-01   7.074e-01   0.000e+00
   7.068e-01  -7.074e-01   0.000e+00
  -7.068e-01   7.074e-01   0.000e+00
   7.068e-01  -7.074e-01   0.000e+00
  -7.068e-01   7.074e-01   0.000e+00
   7.068e-01  -7.074e-01   0.000e+00
  -7.068e-01   7.074e-01   0.000e+00
   7.068e-01  -7.074e-01   0.000e+00
  -7.068e-01   7.074e-01   0.000e+00
   7.068e-01  -7.074e-01   0.000e+00
  -7.068e-01   7.074e-01   0.000e+00
   7.068e-01  -7.074e-01   0.000e+00
  -7.068e-01   7.074e-01   0.000e+00
   7.068e-01  -7.074e-01   0.000e+00
  -7.068e-01   7.074e-01   0.000e+00
   7.068e-01  -7.074e-01   0.000e+00
  -7.068e-01   7.074e-01   0.000e+00
   7.068e-01  -7.074e-01   0.000e+00
  -7.068e-01   7.074e-01   0.000e+00
   7.068e-01  -7.074e-01   0.000e+00
  -7.068e-01   7.074e-01   0.000e+00
   7.068e-01  -7.074e-01   0.000e+00
  -7.068e-01   7.074e-01   0.000e+00
   7.068e-01  -7.074e-01   0.000e+00
  -7.068e-01   7.074e-01   0.000e+00
   7.068e-01  -7.074e-01   0.000e+00
  -7.068e-01   7.074e-01   0.000e+00
   7.068e-01  -7.074e-01   0.000e+00
  -7.068e-01   7.074e-01   0.000e+00
   7.068e-01  -7.074e-01   0.000e+00
  -7.068e-01   7.074e-01   0.000e+00
   7.068e-01  -7.074e-01   0.000e+00
  -7.068e-01   7.074e-01   0.000e+00
   7.068e-01  -7.074e-01   0.000e+00
  -7.068e-01   7.074e-01   0.000e+00
   7.068e-01  -7.074e-01   0.000e+00
  -7.068e-01   7.074e-01   0.000e+00
   7.068e-01  -7.074e-01   0.000e+00
  -7.068e-01   7.074e-01   0.000e+00
   7.068e-01  -7.074e-01   0.000e+00
  -7.068e-01   7.074e-01   0.000e+00
   7.068e-01  -7.074e-01   0.000e+00
  -7.068e-01   7.074e-01   0.000e+00
   7.068e-01  -7.074e-01   0.000e+00
  -7.068e-01   7.074e-01   0.000e+00
   7.068e-01  -7.074e-01   0.000e+00
  -7.068e-01   7.074e-01   0.000e+00
   7.068e-01  -7.074e-01   0.000e+00
  -7.068e-01   7.074e-01   0.000e+00
   7.068e-01  -7.074e-01   0.000e+00
  -7.068e-01   7.074e-01   0.000e+00
   7.068e-01  -7.074e-01   0.000e+00
  -7.068e-01   7.074e-01   0.000e+00
   7.068e-01  -7.074e-01   0.000e+00
  -7.068e-01   7.074e-01   0.000e+00
   7.068e-01  -7.074e-01   0.000e+00
  -7.068e-01   7.074e-01   0.000e+00
   7.068e-01  -7.074e-01   0.000e+00
  -7.068e-01   7.074e-01   0.000e+00
   7.068e-01  -7.074e-01   0.000e+00
  -7.068e-01   7.074e-01   0.000e+00
   7.068e-01  -7.074e-01   0.000e+00
  -7.068e-01   7.074e-01   0.000e+00
   7.068e-01  -7.074e-01   0.000e+00
  -7.068e-01   7.074e-01   0.000e+00
   7.068e-01  -7.074e-01   0.000e+00
  -7.068e-01   7.074e-01   0.000e+00
   7.068e-01  -7.074e-01   0.000e+00
  -7.068e-01   7.074e-01   0.000e+00
   7.068e-01  -7.074e-01   0.000e+00

POINT_DATA 520
VECTORS displacement float
  -1.531e-05  -7.671e-05   0.000e+00
  -1.499e-05  -7.705e-05   0.000e+00
  -1.531e-05  -7.671e-05   0.000e+00
  -1.499e-05  -7.705e-05   0.000e+00
  -1.467e-05  -7.740e-05   0.000e+00
  -1.455e-05  -7.752e-05   0.000e+00
  -1.467e-05  -7.740e-05   0.000e+00
  -1.455e-05  -7.752e-05   0.000e+00
  -1.443e-05  -7.765e-05   0.000e+00
  -1.411e-05  -7.800e-05   0.000e+00
  -1.443e-05  -7.765e-05   0.000e+00
  -1.411e-05  -7.800e-05   0.000e+00
  -1.377e-05  -7.836e-05   0.000e+00
  -1.366e-05  -7.847e-05   0.000e+00
  -1.377e-05  -7.836e-05   0.000e+00
  -1.366e-05  -7.847e-05   0.000e+00
  -1.356e-05  -7.859e-05   0.000e+00
  -1.321e-05  -7.895e-05   0.000e+00
  -1.356e-05  -7.859e-05   0.000e+00
  -1.321e-05  -7.895e-05   0.000e+00
  -1.286e-05  -7.933e-05   0.000e+00
  -1.276e-05  -7.943e-05   0.000e+00
  -1.286e-05  -7.933e-05   0.000e+00
  -1.276e-05  -7.943e-05   0.000e+00
  -1.267e-05  -7.953e-05   0.000e+00
  -1.231e-05  -7.991e-05   0.000e+00
  -1.267e-05  -7.953e-05   0.000e+00
  -1.231e-05  -7.991e-05   0.000e+00
  -1.194e-05  -8.030e-05   0.000e+00
  -1.186e-05  -8.039e-05   0.000e+00
  -1.194e-05  -8.030e-05   0.000e+00
  -1.186e-05  -8.039e-05   0.000e+00
  -1.177e-05  -8.048e-05   0.000e+00
  -1.140e-05  -8.087e-05   0.000e+00
  -1.177e-05  -8.048e-05   0.000e+00
  -1.140e-05  -8.087e-05   0.000e+00
  -1.102e-05  -8.128e-05   0.000e+00
  -1.095e-05  -8.135e-05   0.000e+00
  -1.102e-05  -8.128e-05   0.000e+00
  -1.095e-05  -8.135e-05   0.000e+00
  -1.087e-05  -8.143e-05   0.000e+00
  -1.049e-05  -8.184e-05   0.000e+00
  -1.087e-05  -8.143e-05   0.000e+00
  -1.049e-05  -8.184e-05   0.000e+00
  -1.009e-05  -8.226e-05   0.000e+00
  -1.003e-05  -8.232e-05   0.000e+00
  -1.009e-05  -8.226e-05   0.000e+00
  -1.003e-05  -8.232e-05   0.000e+00
  -9.965e-06  -8.239e-05   0.000e+00
  -9.564e-06  -8.281e-05   0.000e+00
  -9.965e-06  -8.239e-05   0.000e+00
  -9.564e-06  -8.281e-05   0.000e+00
  -9.150e-06  -8.324e-05   0.000e+00
  -9.099e-06  -8.329e-05   0.000e+00
  -9.150e-06  -8.324e-05   0.000e+00
  -9.100e-06  -8.329e-05   0.000e+00
  -9.050e-06  -8.335e-05   0.000e+00
  -8.633e-06  -8.378e-05   0.000e+00
  -9.050e-06  -8.335e-05   0.000e+00
  -8.633e-06  -8.378e-05   0.000e+00
  -8.204e-06  -8.423e-05   0.000e+00
  -8.165e-06  -8.427e-05   0.000e+00
  -8.204e-06  -8.423e-05   0.000e+00
  -8.165e-06  -8.427e-05   0.000e+00
  -8.127e-06  -8.431e-05   0.000e+00
  -7.695e-06  -8.476e-05   0.000e+00
  -8.127e-06  -8.431e-05   0.000e+00
  -7.695e-06  -8.476e-05   0.000e+00
  -7.250e-06  -8.522e-05   0.000e+00
  -7.223e-06  -8.525e-05   0.000e+00
  -7.250e-06  -8.522e-05   0.000e+00
  -7.223e-06  -8.525e-05   0.000e+00
  -7.197e-06  -8.528e-05   0.000e+00
  -6.750e-06  -8.574e-05   0.000e+00
  -7.197e-06  -8.528e-05   0.000e+00
  -6.750e-06  -8.574e-05   0.000e+00
  -6.289e-06  -8.622e-05   0.000e+00
  -6.274e-06  -8.623e-05   0.000e+00
  -6.289e-06  -8.622e-05   0.000e+00
  -6.274e-06  -8.623e-05   0.000e+00
  -6.260e-06  -8.625e-05   0.000e+00
  -5.797e-06  -8.673e-05   0.000e+00
  -6.260e-06  -8.625e-05   0.000e+00
  -5.797e-06  -8.673e-05   0.000e+00
  -5.320e-06  -8.722e-05   0.000e+00
  -5.318e-06  -8.722e-05   0.000e+00
  -5.320e-06  -8.722e-05   0.000e+00
  -5.318e-06  -8.722e-05   0.000e+00
  -5.316e-06  -8.722e-05   0.000e+00
  -4.837e-06  -8.772e-05   0.000e+00
  -5.316e-06  -8.722e-05   0.000e+00
  -4.837e-06  -8.772e-05   0.000e+00
  -4.365e-06  -8.820e-05   0.000e+00
  -4.355e-06  -8.821e-05   0.000e+00
  -4.365e-06  -8.820e-05   0.000e+00
  -4.355e-06  -8.821e-05   0.000e+00
  -4.344e-06  -8.822e-05   0.000e+00
  -3.870e-06  -8.871e-05   0.000e+00
  -4.344e-06  -8.822e-05   0.000e+00
  -3.870e-06  -8.871e-05   0.000e+00
  -3.407e-06  -8.918e-05   0.000e+00
  -3.384e-06  -8.921e-05   0.000e+00
  -3.407e-06  -8.918e-05   0.000e+00
  -3.384e-06  -8.921e-05   0.000e+00
  -3.360e-06  -8.923e-05   0.000e+00
  -2.896e-06  -8.971e-05   0.000e+00
  -3.360e-06  -8.923e-05   0.000e+00
  -2.896e-06  -8.971e-05   0.000e+00
  -2.442e-06  -9.017e-05   0.000e+00
  -2.406e-06  -9.020e-05   0.000e+00
  -2.442e-06  -9.017e-05   0.000e+00
  -2.406e-06  -9.020e-05   0.000e+00
  -2.369e-06  -9.024e-05   0.000e+00
  -1.915e-06  -9.071e-05   0.000e+00
  -2.369e-06  -9.024e-05   0.000e+00
  -1.915e-06  -9.071e-05   0.000e+00
  -1.470e-06  -9.116e-05   0.000e+00
  -1.421e-06  -9.121e-05   0.000e+00
  -1.470e-06  -9.116e-05   0.000e+00
  -1.421e-06  -9.121e-05   0.000e+00
  -1.371e-06  -9.126e-05   0.000e+00
  -9.263e-07  -9.171e-05   0.000e+00
  -1.371e-06  -9.126e-05   0.000e+00
  -9.264e-07  -9.171e-05   0.000e+00
  -4.911e-07  -9.215e-05   0.000e+00
  -4.294e-07  -9.221e-05   0.000e+00
  -4.911e-07  -9.215e-05   0.000e+00
  -4.293e-07  -9.221e-05   0.000e+00
  -3.655e-07  -9.228e-05   0.000e+00
   6.919e-08  -9.272e-05   0.000e+00
  -3.655e-07  -9.228e-05   0.000e+00
   6.904e-08  -9.272e-05   0.000e+00
   4.946e-07  -9.314e-05   0.000e+00
   5.696e-07  -9.322e-05   0.000e+00
   4.946e-07  -9.314e-05   0.000e+00
   5.697e-07  -9.322e-05   0.000e+00
   6.472e-07  -9.330e-05   0.000e+00
   1.072e-06  -9.373e-05   0.000e+00
   6.472e-07  -9.330e-05   0.000e+00
   1.072e-06  -9.373e-05   0.000e+00
   1.487e-06  -9.414e-05   0.000e+00
   1.576e-06  -9.423e-05   0.000e+00
   1.487e-06  -9.414e-05   0.000e+00
   1.576e-06  -9.423e-05   0.000e+00
   1.667e-06  -9.432e-05   0.000e+00
   2.081e-06  -9.474e-05   0.000e+00
   1.667e-06  -9.432e-05   0.000e+00
   2.081e-06  -9.474e-05   0.000e+00
   2.486e-06  -9.515e-05   0.000e+00
   2.589e-06  -9.525e-05   0.000e+00
   2.486e-06  -9.515e-05   0.000e+00
   2.589e-06  -9.525e-05   0.000e+00
   2.694e-06  -9.535e-05   0.000e+00
   3.098e-06  -9.576e-05   0.000e+00
   2.694e-06  -9.535e-05   0.000e+00
   3.097e-06  -9.576e-05   0.000e+00
   3.493e-06  -9.615e-05   0.000e+00
   3.608e-06  -9.627e-05   0.000e+00
   3.493e-06  -9.615e-05   0.000e+00
   3.609e-06  -9.627e-05   0.000e+00
   3.728e-06  -9.639e-05   0.000e+00
   4.121e-06  -9.678e-05   0.000e+00
   3.728e-06  -9.639e-05   0.000e+00
   4.121e-06  -9.678e-05   0.000e+00
   4.505e-06  -9.716e-05   0.000e+00
   4.635e-06  -9.729e-05   0.000e+00
   4.505e-06  -9.716e-05   0.000e+00
   4.635e-06  -9.729e-05   0.000e+00
   4.769e-06  -9.742e-05   0.000e+00
   5.151e-06  -9.780e-05   0.000e+00
   4.769e-06  -9.742e-05   0.000e+00
   5.151e-06  -9.780e-05   0.000e+00
   5.525e-06  -9.817e-05   0.000e+00
   5.669e-06  -9.832e-05   0.000e+00
   5.525e-06  -9.817e-05   0.000e+00
   5.669e-06  -9.832e-05   0.000e+00
   5.818e-06  -9.846e-05   0.000e+00
   6.188e-06  -9.883e-05   0.000e+00
   5.818e-06  -9.846e-05   0.000e+00
   6.188e-06  -9.883e-05   0.000e+00
   6.551e-06  -9.919e-05   0.000e+00
   6.709e-06  -9.935e-05   0.000e+00
   6.551e-06  -9.919e-05   0.000e+00
   6.709e-06  -9.935e-05   0.000e+00
   6.873e-06  -9.951e-05   0.000e+00
   7.232e-06  -9.986e-05   0.000e+00
   6.873e-06  -9.951e-05   0.000e+00
   7.232e-06  -9.986e-05   0.000e+00
   7.584e-06  -1.002e-04   0.000e+00
   7.756e-06  -1.004e-04   0.000e+00
   7.584e-06  -1.002e-04   0.000e+00
   7.757e-06  -1.004e-04   0.000e+00
   7.935e-06  -1.006e-04   0.000e+00
   8.283e-06  -1.009e-04   0.000e+00
   7.935e-06  -1.006e-04   0.000e+00
   8.283e-06  -1.009e-04   0.000e+00
   8.623e-06  -1.012e-04   0.000e+00
   8.811e-06  -1.014e-04   0.000e+00
   8.623e-06  -1.012e-04   0.000e+00
   8.811e-06  -1.014e-04   0.000e+00
   9.004e-06  -1.016e-04   0.000e+00
   9.340e-06  -1.019e-04   0.000e+00
   9.004e-06  -1.016e-04   0.000e+00
   9.340e-06  -1.019e-04   0.000e+00
   9.669e-06  -1.023e-04   0.000e+00
   9.871e-06  -1.025e-04   0.000e+00
   9.669e-06  -1.023e-04   0.000e+00
   9.871e-06  -1.025e-04   0.000e+00
   1.008e-05  -1.027e-04   0.000e+00
   1.040e-05  -1.030e-04   0.000e+00
   1.008e-05  -1.027e-04   0.000e+00
   1.040e-05  -1.030e-04   0.000e+00
   1.072e-05  -1.033e-04   0.000e+00
   1.094e-05  -1.035e-04   0.000e+00
   1.072e-05  -1.033e-04   0.000e+00
   1.094e-05  -1.035e-04   0.000e+00
   1.116e-05  -1.037e-04   0.000e+00
   1.148e-05  -1.040e-04   0.000e+00
   1.116e-05  -1.037e-04   0.000e+00
   1.147e-05  -1.040e-04   0.000e+00
   1.178e-05  -1.043e-04   0.000e+00
   1.201e-05  -1.045e-04   0.000e+00
   1.178e-05  -1.043e-04   0.000e+00
   1.201e-05  -1.045e-04   0.000e+00
   1.225e-05  -1.048e-04   0.000e+00
   1.255e-05  -1.051e-04   0.000e+00
   1.225e-05  -1.048e-04   0.000e+00
   1.255e-05  -1.051e-04   0.000e+00
   1.285e-05  -1.053e-04   0.000e+00
   1.309e-05  -1.056e-04   0.000e+00
   1.285e-05  -1.053e-04   0.000e+00
   1.309e-05  -1.056e-04   0.000e+00
   1.335e-05  -1.058e-04   0.000e+00
   1.364e-05  -1.061e-04   0.000e+00
   1.335e-05  -1.058e-04   0.000e+00
   1.364e-05  -1.061e-04   0.000e+00
   1.392e-05  -1.064e-04   0.000e+00
   1.418e-05  -1.066e-04   0.000e+00
   1.392e-05  -1.064e-04   0.000e+00
   1.418e-05  -1.066e-04   0.000e+00
   1.445e-05  -1.069e-04   0.000e+00
   1.473e-05  -1.072e-04   0.000e+00
   1.445e-05  -1.069e-04   0.000e+00
   1.473e-05  -1.072e-04   0.000e+00
   1.500e-05  -1.074e-04   0.000e+00
   1.527e-05  -1.077e-04   0.000e+00
   1.500e-05  -1.074e-04   0.000e+00
   1.527e-05  -1.077e-04   0.000e+00
   1.556e-05  -1.080e-04   0.000e+00
   1.582e-05  -1.082e-04   0.000e+00
   1.556e-05  -1.080e-04   0.000e+00
   1.582e-05  -1.082e-04   0.000e+00
   1.608e-05  -1.085e-04   0.000e+00
   1.637e-05  -1.088e-04   0.000e+00
   1.608e-05  -1.085e-04   0.000e+00
   1.637e-05  -1.088e-04   0.000e+00
   1.668e-05  -1.090e-04   0.000e+00
   1.693e-05  -1.093e-04   0.000e+00
   1.668e-05  -1.090e-04   0.000e+00
   1.693e-05  -1.093e-04   0.000e+00
  -1.499e-05  -7.705e-05   0.000e+00
  -1.467e-05  -7.740e-05   0.000e+00
  -1.499e-05  -7.705e-05   0.000e+00
  -1.467e-05  -7.740e-05   0.000e+00
  -1.455e-05  -7.752e-05   0.000e+00
  -1.443e-05  -7.765e-05   0.000e+00
  -1.455e-05  -7.752e-05   0.000e+00
  -1.443e-05  -7.765e-05   0.000e+00
  -1.411e-05  -7.800e-05   0.000e+00
  -1.377e-05  -7.836e-05   0.000e+00
  -1.411e-05  -7.800e-05   0.000e+00
  -1.377e-05  -7.836e-05   0.000e+00
  -1.366e-05  -7.847e-05   0.000e+00
  -1.356e-05  -7.859e-05   0.000e+00
  -1.366e-05  -7.847e-05   0.000e+00
  -1.356e-05  -7.859e-05   0.000e+00
  -1.321e-05  -7.895e-05   0.000e+00
  -1.286e-05  -7.933e-05   0.000e+00