# vtk DataFile Version 2.0
Interface mesh generated by generateVTK.m
ASCII
DATASET UNSTRUCTURED_GRID

POINTS 128 float
   8.206e-01  -8.206e-01   0.000e+00
   8.206e-01  -8.250e-01   0.000e+00
   8.206e-01  -8.206e-01   0.000e+00
   8.206e-01  -8.250e-01   0.000e+00
   8.206e-01  -1.096e+00   0.000e+00
   8.206e-01  -9.625e-01   0.000e+00
   8.206e-01  -1.096e+00   0.000e+00
   8.206e-01  -9.625e-01   0.000e+00
   8.206e-01  -9.625e-01   0.000e+00
   8.206e-01  -9.581e-01   0.000e+00
   8.206e-01  -9.625e-01   0.000e+00
   8.206e-01  -9.581e-01   0.000e+00
   8.206e-01  -9.581e-01   0.000e+00
   8.206e-01  -8.250e-01   0.000e+00
   8.206e-01  -9.581e-01   0.000e+00
   8.206e-01  -8.250e-01   0.000e+00
   8.206e-01  -1.096e+00   0.000e+00
   8.206e-01  -1.100e+00   0.000e+00
   8.206e-01  -1.096e+00   0.000e+00
   8.206e-01  -1.100e+00   0.000e+00
   8.206e-01  -2.706e-01   0.000e+00
   8.206e-01  -1.375e-01   0.000e+00
   8.206e-01  -2.706e-01   0.000e+00
   8.206e-01  -1.375e-01   0.000e+00
   8.206e-01  -1.375e-01   0.000e+00
   8.206e-01  -1.331e-01   0.000e+00
   8.206e-01  -1.375e-01   0.000e+00
   8.206e-01  -1.331e-01   0.000e+00
   8.206e-01  -1.331e-01   0.000e+00
   8.206e-01   0.000e+00   0.000e+00
   8.206e-01  -1.331e-01   0.000e+00
   8.206e-01   0.000e+00   0.000e+00
   8.206e-01  -5.456e-01   0.000e+00
   8.206e-01  -5.500e-01   0.000e+00
   8.206e-01  -5.456e-01   0.000e+00
   8.206e-01  -5.500e-01   0.000e+00
   8.206e-01  -2.750e-01   0.000e+00
   8.206e-01  -4.081e-01   0.000e+00
   8.206e-01  -2.750e-01   0.000e+00
   8.206e-01  -4.081e-01   0.000e+00
   8.206e-01  -4.081e-01   0.000e+00
   8.206e-01  -4.125e-01   0.000e+00
   8.206e-01  -4.081e-01   0.000e+00
   8.206e-01  -4.125e-01   0.000e+00
   8.206e-01  -4.125e-01   0.000e+00
   8.206e-01  -5.456e-01   0.000e+00
   8.206e-01  -4.125e-01   0.000e+00
   8.206e-01  -5.456e-01   0.000e+00
   8.206e-01  -2.706e-01   0.000e+00
   8.206e-01  -2.750e-01   0.000e+00
   8.206e-01  -2.706e-01   0.000e+00
   8.206e-01  -2.750e-01   0.000e+00
   8.206e-01  -8.206e-01   0.000e+00
   8.206e-01  -6.875e-01   0.000e+00
   8.206e-01  -8.206e-01   0.000e+00
   8.206e-01  -6.875e-01   0.000e+00
   8.206e-01  -6.875e-01   0.000e+00
   8.206e-01  -6.831e-01   0.000e+00
   8.206e-01  -6.875e-01   0.000e+00
   8.206e-01  -6.831e-01   0.000e+00
   8.206e-01  -6.831e-01   0.000e+00
   8.206e-01  -5.500e-01   0.000e+00
   8.206e-01  -6.831e-01   0.000e+00
   8.206e-01  -5.500e-01   0.000e+00
   8.206e-01   2.794e-01   0.000e+00
   8.206e-01   2.750e-01   0.000e+00
   8.206e-01   2.794e-01   0.000e+00
   8.206e-01   2.750e-01   0.000e+00
   8.206e-01   4.400e-03   0.000e+00
   8.206e-01   1.375e-01   0.000e+00
   8.206e-01   4.400e-03   0.000e+00
   8.206e-01   1.375e-01   0.000e+00
   8.206e-01   1.375e-01   0.000e+00
   8.206e-01   1.419e-01   0.000e+00
   8.206e-01   1.375e-01   0.000e+00
   8.206e-01   1.419e-01   0.000e+00
   8.206e-01   1.419e-01   0.000e+00
   8.206e-01   2.750e-01   0.000e+00
   8.206e-01   1.419e-01   0.000e+00
   8.206e-01   2.750e-01   0.000e+00
   8.206e-01   4.400e-03   0.000e+00
   8.206e-01   0.000e+00   0.000e+00
   8.206e-01   4.400e-03   0.000e+00
   8.206e-01   0.000e+00   0.000e+00
   8.206e-01   2.794e-01   0.000e+00
   8.206e-01   4.125e-01   0.000e+00
   8.206e-01   2.794e-01   0.000e+00
   8.206e-01   4.125e-01   0.000e+00
   8.206e-01   4.125e-01   0.000e+00
   8.206e-01   4.169e-01   0.000e+00
   8.206e-01   4.125e-01   0.000e+00
   8.206e-01   4.169e-01   0.000e+00
   8.206e-01   4.169e-01   0.000e+00
   8.206e-01   5.500e-01   0.000e+00
   8.206e-01   4.169e-01   0.000e+00
   8.206e-01   5.500e-01   0.000e+00
   8.206e-01   8.294e-01   0.000e+00
   8.206e-01   8.250e-01   0.000e+00
   8.206e-01   8.294e-01   0.000e+00
   8.206e-01   8.250e-01   0.000e+00
   8.206e-01   5.544e-01   0.000e+00
   8.206e-01   6.875e-01   0.000e+00
   8.206e-01   5.544e-01   0.000e+00
   8.206e-01   6.875e-01   0.000e+00
   8.206e-01   6.875e-01   0.000e+00
   8.206e-01   6.919e-01   0.000e+00
   8.206e-01   6.875e-01   0.000e+00
   8.206e-01   6.919e-01   0.000e+00
   8.206e-01   6.919e-01   0.000e+00
   8.206e-01   8.250e-01   0.000e+00
   8.206e-01   6.919e-01   0.000e+00
   8.206e-01   8.250e-01   0.000e+00
   8.206e-01   5.544e-01   0.000e+00
   8.206e-01   5.500e-01   0.000e+00
   8.206e-01   5.544e-01   0.000e+00
   8.206e-01   5.500e-01   0.000e+00
   8.206e-01   8.294e-01   0.000e+00
   8.206e-01   9.625e-01   0.000e+00
   8.206e-01   8.294e-01   0.000e+00
   8.206e-01   9.625e-01   0.000e+00
   8.206e-01   9.625e-01   0.000e+00
   8.206e-01   9.669e-01   0.000e+00
   8.206e-01   9.625e-01   0.000e+00
   8.206e-01   9.669e-01   0.000e+00
   8.206e-01   9.669e-01   0.000e+00
   8.206e-01   1.100e+00   0.000e+00
   8.206e-01   9.669e-01   0.000e+00
   8.206e-01   1.100e+00   0.000e+00

CELLS 64 192
         2         0         1
         2         2         3
         2         4         5
         2         6         7
         2         8         9
         2        10        11
         2        12        13
         2        14        15
         2        16        17
         2        18        19
         2        20        21
         2        22        23
         2        24        25
         2        26        27
         2        28        29
         2        30        31
         2        32        33
         2        34        35
         2        36        37
         2        38        39
         2        40        41
         2        42        43
         2        44        45
         2        46        47
         2        48        49
         2        50        51
         2        52        53
         2        54        55
         2        56        57
         2        58        59
         2        60        61
         2        62        63
         2        64        65
         2        66        67
         2        68        69
         2        70        71
         2        72        73
         2        74        75
         2        76        77
         2        78        79
         2        80        81
         2        82        83
         2        84        85
         2        86        87
         2        88        89
         2        90        91
         2        92        93
         2        94        95
         2        96        97
         2        98        99
         2       100       101
         2       102       103
         2       104       105
         2       106       107
         2       108       109
         2       110       111
         2       112       113
         2       114       115
         2       116       117
         2       118       119
         2       120       121
         2       122       123
         2       124       125
         2       126       127

CELL_TYPES 64
   3
   3
   3
   3
   3
   3
   3
   3
   3
   3
   3
   3
   3
   3
   3
   3
   3
   3
   3
   3
   3
   3
   3
   3
   3
   3
   3
   3
   3
   3
   3
   3
   3
   3
   3
   3
   3
   3
   3
   3
   3
   3
   3
   3
   3
   3
   3
   3
   3
   3
   3
   3
   3
   3
   3
   3
   3
   3
   3
   3
   3
   3
   3
   3

CELL_DATA 64
VECTORS normal float
   1.000e+00  -0.000e+00   0.000e+00
  -1.000e+00   0.000e+00   0.000e+00
   1.000e+00   0.000e+00   0.000e+00
  -1.000e+00  -0.000e+00   0.000e+00
   1.000e+00  -0.000e+00   0.000e+00
  -1.000e+00   0.000e+00   0.000e+00
   1.000e+00  -0.000e+00   0.000e+00
  -1.000e+00   0.000e+00   0.000e+00
   1.000e+00  -0.000e+00   0.000e+00
  -1.000e+00   0.000e+00   0.000e+00
   1.000e+00   0.000e+00   0.000e+00
  -1.000e+00  -0.000e+00   0.000e+00
   1.000e+00  -0.000e+00   0.000e+00
  -1.000e+00   0.000e+00   0.000e+00
   1.000e+00  -0.000e+00   0.000e+00
  -1.000e+00   0.000e+00   0.000e+00
   1.000e+00  -0.000e+00   0.000e+00
  -1.000e+00   0.000e+00   0.000e+00
   1.000e+00  -0.000e+00   0.000e+00
  -1.000e+00   0.000e+00   0.000e+00
   1.000e+00   0.000e+00   0.000e+00
  -1.000e+00  -0.000e+00   0.000e+00
   1.000e+00   0.000e+00   0.000e+00
  -1.000e+00  -0.000e+00   0.000e+00
   1.000e+00  -0.000e+00   0.000e+00
  -1.000e+00   0.000e+00   0.000e+00
   1.000e+00   0.000e+00   0.000e+00
  -1.000e+00  -0.000e+00   0.000e+00
   1.000e+00  -0.000e+00   0.000e+00
  -1.000e+00   0.000e+00   0.000e+00
   1.000e+00  -0.000e+00   0.000e+00
  -1.000e+00   0.000e+00   0.000e+00
   1.000e+00  -0.000e+00   0.000e+00
  -1.000e+00   0.000e+00   0.000e+00
   1.000e+00   0.000e+00   0.000e+00
  -1.000e+00  -0.000e+00   0.000e+00
   1.000e+00  -0.000e+00   0.000e+00
  -1.000e+00   0.000e+00   0.000e+00
   1.000e+00  -0.000e+00   0.000e+00
  -1.000e+00   0.000e+00   0.000e+00
   1.000e+00  -0.000e+00   0.000e+00
  -1.000e+00   0.000e+00   0.000e+00
   1.000e+00   0.000e+00   0.000e+00
  -1.000e+00  -0.000e+00   0.000e+00
   1.000e+00  -0.000e+00   0.000e+00
  -1.000e+00   0.000e+00   0.000e+00
   1.000e+00  -0.000e+00   0.000e+00
  -1.000e+00   0.000e+00   0.000e+00
   1.000e+00  -0.000e+00   0.000e+00
  -1.000e+00   0.000e+00   0.000e+00
   1.000e+00   0.000e+00   0.000e+00
  -1.000e+00  -0.000e+00   0.000e+00
   1.000e+00  -0.000e+00   0.000e+00
  -1.000e+00   0.000e+00   0.000e+00
   1.000e+00  -0.000e+00   0.000e+00
  -1.000e+00   0.000e+00   0.000e+00
   1.000e+00  -0.000e+00   0.000e+00
  -1.000e+00   0.000e+00   0.000e+00
   1.000e+00   0.000e+00   0.000e+00
  -1.000e+00  -0.000e+00   0.000e+00
   1.000e+00  -0.000e+00   0.000e+00
  -1.000e+00   0.000e+00   0.000e+00
   1.000e+00  -0.000e+00   0.000e+00
  -1.000e+00   0.000e+00   0.000e+00

POINT_DATA 128
VECTORS displacement float
   3.730e-01  -1.481e-12   0.000e+00
   3.730e-01  -1.482e-12   0.000e+00
   3.730e-01  -7.092e-13   0.000e+00
   3.730e-01  -7.126e-13   0.000e+00
   3.730e-01  -1.527e-12   0.000e+00
   3.730e-01  -1.505e-12   0.000e+00
   3.730e-01  -9.227e-13   0.000e+00
   3.730e-01  -8.194e-13   0.000e+00
   3.730e-01  -1.505e-12   0.000e+00
   3.730e-01  -1.504e-12   0.000e+00
   3.730e-01  -8.194e-13   0.000e+00
   3.730e-01  -8.159e-13   0.000e+00
   3.730e-01  -1.504e-12   0.000e+00
   3.730e-01  -1.482e-12   0.000e+00
   3.730e-01  -8.159e-13   0.000e+00
   3.730e-01  -7.126e-13   0.000e+00
   3.730e-01  -1.527e-12   0.000e+00
   3.730e-01  -1.527e-12   0.000e+00
   3.730e-01  -9.227e-13   0.000e+00
   3.730e-01  -9.261e-13   0.000e+00
   3.730e-01  -1.390e-12   0.000e+00
   3.730e-01  -1.368e-12   0.000e+00
   3.730e-01  -2.821e-13   0.000e+00
   3.730e-01  -1.787e-13   0.000e+00
   3.730e-01  -1.368e-12   0.000e+00
   3.730e-01  -1.367e-12   0.000e+00
   3.730e-01  -1.787e-13   0.000e+00
   3.730e-01  -1.753e-13   0.000e+00
   3.730e-01  -1.367e-12   0.000e+00
   3.730e-01  -1.345e-12   0.000e+00
   3.730e-01  -1.753e-13   0.000e+00
   3.730e-01  -7.198e-14   0.000e+00
   3.730e-01  -1.436e-12   0.000e+00
   3.730e-01  -1.436e-12   0.000e+00
   3.730e-01  -4.956e-13   0.000e+00
   3.730e-01  -4.991e-13   0.000e+00
   3.730e-01  -1.391e-12   0.000e+00
   3.730e-01  -1.413e-12   0.000e+00
   3.730e-01  -2.855e-13   0.000e+00
   3.730e-01  -3.889e-13   0.000e+00
   3.730e-01  -1.413e-12   0.000e+00
   3.730e-01  -1.414e-12   0.000e+00
   3.730e-01  -3.889e-13   0.000e+00
   3.730e-01  -3.923e-13   0.000e+00
   3.730e-01  -1.414e-12   0.000e+00
   3.730e-01  -1.436e-12   0.000e+00
   3.730e-01  -3.923e-13   0.000e+00
   3.730e-01  -4.956e-13   0.000e+00
   3.730e-01  -1.390e-12   0.000e+00
   3.730e-01  -1.391e-12   0.000e+00
   3.730e-01  -2.821e-13   0.000e+00
   3.730e-01  -2.855e-13   0.000e+00
   3.730e-01  -1.481e-12   0.000e+00
   3.730e-01  -1.459e-12   0.000e+00
   3.730e-01  -7.092e-13   0.000e+00
   3.730e-01  -6.058e-13   0.000e+00
   3.730e-01  -1.459e-12   0.000e+00
   3.730e-01  -1.458e-12   0.000e+00
   3.730e-01  -6.058e-13   0.000e+00
   3.730e-01  -6.024e-13   0.000e+00
   3.730e-01  -1.458e-12   0.000e+00
   3.730e-01  -1.436e-12   0.000e+00
   3.730e-01  -6.024e-13   0.000e+00
   3.730e-01  -4.991e-13   0.000e+00
   3.730e-01  -1.299e-12   0.000e+00
   3.730e-01  -1.300e-12   0.000e+00
   3.730e-01   1.450e-13   0.000e+00
   3.730e-01   1.416e-13   0.000e+00
   3.730e-01  -1.345e-12   0.000e+00
   3.730e-01  -1.323e-12   0.000e+00
   3.730e-01  -6.856e-14   0.000e+00
   3.730e-01   3.479e-14   0.000e+00
   3.730e-01  -1.323e-12   0.000e+00
   3.730e-01  -1.322e-12   0.000e+00
   3.730e-01   3.479e-14   0.000e+00
   3.730e-01   3.821e-14   0.000e+00
   3.730e-01  -1.322e-12   0.000e+00
   3.730e-01  -1.300e-12   0.000e+00
   3.730e-01   3.821e-14   0.000e+00
   3.730e-01   1.416e-13   0.000e+00
   3.730e-01  -1.345e-12   0.000e+00
   3.730e-01  -1.345e-12   0.000e+00
   3.730e-01  -6.856e-14   0.000e+00
   3.730e-01  -7.198e-14   0.000e+00
   3.730e-01  -1.299e-12   0.000e+00
   3.730e-01  -8.677e-13   0.000e+00
   3.730e-01   1.450e-13   0.000e+00
   3.730e-01   1.528e-13   0.000e+00
   3.730e-01  -8.677e-13   0.000e+00
   3.730e-01  -8.534e-13   0.000e+00
   3.730e-01   1.528e-13   0.000e+00
   3.730e-01   1.531e-13   0.000e+00
   3.730e-01  -8.534e-13   0.000e+00
   3.730e-01  -4.219e-13   0.000e+00
   3.730e-01   1.531e-13   0.000e+00
   3.730e-01   1.609e-13   0.000e+00
   3.730e-01   4.839e-13   0.000e+00
   3.730e-01   4.696e-13   0.000e+00
   3.730e-01   1.773e-13   0.000e+00
   3.730e-01   1.771e-13   0.000e+00
   3.730e-01  -4.077e-13   0.000e+00
   3.730e-01   2.386e-14   0.000e+00
   3.730e-01   1.612e-13   0.000e+00
   3.730e-01   1.690e-13   0.000e+00
   3.730e-01   2.386e-14   0.000e+00
   3.730e-01   3.812e-14   0.000e+00
   3.730e-01   1.690e-13   0.000e+00
   3.730e-01   1.693e-13   0.000e+00
   3.730e-01   3.812e-14   0.000e+00
   3.730e-01   4.696e-13   0.000e+00
   3.730e-01   1.693e-13   0.000e+00
   3.730e-01   1.771e-13   0.000e+00
   3.730e-01  -4.077e-13   0.000e+00
   3.730e-01  -4.219e-13   0.000e+00
   3.730e-01   1.612e-13   0.000e+00
   3.730e-01   1.609e-13   0.000e+00
   3.730e-01   4.839e-13   0.000e+00
   3.730e-01   9.154e-13   0.000e+00
   3.730e-01   1.773e-13   0.000e+00
   3.730e-01   1.852e-13   0.000e+00
   3.730e-01   9.154e-13   0.000e+00
   3.730e-01   9.297e-13   0.000e+00
   3.730e-01   1.852e-13   0.000e+00
   3.730e-01   1.854e-13   0.000e+00
   3.730e-01   9.297e-13   0.000e+00
   3.730e-01   1.361e-12   0.000e+00
   3.730e-01   1.854e-13   0.000e+00
   3.730e-01   1.933e-13   0.000e+00

