# vtk DataFile Version 2.0
Interface mesh generated by generateVTK.m
ASCII
DATASET UNSTRUCTURED_GRID

POINTS 600 float
   1.071e+00  -1.714e+00   0.000e+00
   1.131e+00  -1.700e+00   0.000e+00
   1.071e+00  -1.714e+00   0.000e+00
   1.131e+00  -1.700e+00   0.000e+00
  -1.717e+00  -1.817e+00   0.000e+00
  -1.711e+00  -1.824e+00   0.000e+00
  -1.717e+00  -1.817e+00   0.000e+00
  -1.711e+00  -1.824e+00   0.000e+00
  -1.566e+00  -1.952e+00   0.000e+00
  -1.563e+00  -1.954e+00   0.000e+00
  -1.566e+00  -1.952e+00   0.000e+00
  -1.563e+00  -1.954e+00   0.000e+00
  -1.368e+00  -2.014e+00   0.000e+00
  -1.285e+00  -2.017e+00   0.000e+00
  -1.368e+00  -2.014e+00   0.000e+00
  -1.285e+00  -2.017e+00   0.000e+00
  -1.140e+00  -1.993e+00   0.000e+00
  -1.192e+00  -2.007e+00   0.000e+00
  -1.140e+00  -1.993e+00   0.000e+00
  -1.192e+00  -2.007e+00   0.000e+00
  -1.798e+00  -1.636e+00   0.000e+00
  -1.727e+00  -1.797e+00   0.000e+00
  -1.798e+00  -1.636e+00   0.000e+00
  -1.727e+00  -1.797e+00   0.000e+00
  -1.717e+00  -1.817e+00   0.000e+00
  -1.727e+00  -1.797e+00   0.000e+00
  -1.717e+00  -1.817e+00   0.000e+00
  -1.727e+00  -1.797e+00   0.000e+00
  -1.711e+00  -1.824e+00   0.000e+00
  -1.566e+00  -1.952e+00   0.000e+00
  -1.711e+00  -1.824e+00   0.000e+00
  -1.566e+00  -1.952e+00   0.000e+00
  -1.563e+00  -1.954e+00   0.000e+00
  -1.552e+00  -1.958e+00   0.000e+00
  -1.563e+00  -1.954e+00   0.000e+00
  -1.552e+00  -1.958e+00   0.000e+00
  -1.140e+00  -1.993e+00   0.000e+00
  -1.002e+00  -1.929e+00   0.000e+00
  -1.140e+00  -1.993e+00   0.000e+00
  -1.002e+00  -1.929e+00   0.000e+00
  -1.368e+00  -2.014e+00   0.000e+00
  -1.425e+00  -2.004e+00   0.000e+00
  -1.368e+00  -2.014e+00   0.000e+00
  -1.425e+00  -2.004e+00   0.000e+00
  -1.764e+00  -1.284e+00   0.000e+00
  -1.820e+00  -1.441e+00   0.000e+00
  -1.764e+00  -1.284e+00   0.000e+00
  -1.820e+00  -1.441e+00   0.000e+00
  -1.798e+00  -1.636e+00   0.000e+00
  -1.820e+00  -1.455e+00   0.000e+00
  -1.798e+00  -1.636e+00   0.000e+00
  -1.820e+00  -1.455e+00   0.000e+00
   1.924e+00   9.978e-01   0.000e+00
   1.924e+00   9.898e-01   0.000e+00
   1.924e+00   9.978e-01   0.000e+00
   1.924e+00   9.898e-01   0.000e+00
  -1.285e+00  -2.017e+00   0.000e+00
  -1.192e+00  -2.007e+00   0.000e+00
  -1.285e+00  -2.017e+00   0.000e+00
  -1.192e+00  -2.007e+00   0.000e+00
   1.815e+00   1.312e+00   0.000e+00
   1.770e+00   1.358e+00   0.000e+00
   1.815e+00   1.312e+00   0.000e+00
   1.770e+00   1.358e+00   0.000e+00
  -1.552e+00  -1.958e+00   0.000e+00
  -1.425e+00  -2.004e+00   0.000e+00
  -1.552e+00  -1.958e+00   0.000e+00
  -1.425e+00  -2.004e+00   0.000e+00
   1.815e+00   1.312e+00   0.000e+00
   1.848e+00   1.252e+00   0.000e+00
   1.815e+00   1.312e+00   0.000e+00
   1.848e+00   1.252e+00   0.000e+00
  -1.820e+00  -1.441e+00   0.000e+00
  -1.820e+00  -1.455e+00   0.000e+00
  -1.820e+00  -1.441e+00   0.000e+00
  -1.820e+00  -1.455e+00   0.000e+00
  -1.002e+00  -1.929e+00   0.000e+00
  -9.873e-01  -1.918e+00   0.000e+00
  -1.002e+00  -1.929e+00   0.000e+00
  -9.873e-01  -1.918e+00   0.000e+00
  -1.764e+00  -1.284e+00   0.000e+00
  -1.672e+00  -1.133e+00   0.000e+00
  -1.764e+00  -1.284e+00   0.000e+00
  -1.672e+00  -1.133e+00   0.000e+00
   1.394e+00  -1.533e+00   0.000e+00
   1.449e+00  -1.451e+00   0.000e+00
   1.394e+00  -1.533e+00   0.000e+00
   1.449e+00  -1.451e+00   0.000e+00
   1.545e+00   1.504e+00   0.000e+00
   1.544e+00   1.505e+00   0.000e+00
   1.545e+00   1.504e+00   0.000e+00
   1.544e+00   1.505e+00   0.000e+00
   1.848e+00   1.252e+00   0.000e+00
   1.896e+00   1.138e+00   0.000e+00
   1.848e+00   1.252e+00   0.000e+00
   1.896e+00   1.138e+00   0.000e+00
   1.842e+00   7.365e-01   0.000e+00
   1.894e+00   8.564e-01   0.000e+00
   1.842e+00   7.365e-01   0.000e+00
   1.894e+00   8.564e-01   0.000e+00
   1.394e+00  -1.533e+00   0.000e+00
   1.331e+00  -1.595e+00   0.000e+00
   1.394e+00  -1.533e+00   0.000e+00
   1.331e+00  -1.595e+00   0.000e+00
   1.545e+00   1.504e+00   0.000e+00
   1.548e+00   1.503e+00   0.000e+00
   1.545e+00   1.504e+00   0.000e+00
   1.548e+00   1.503e+00   0.000e+00
   1.548e+00   1.503e+00   0.000e+00
   1.685e+00   1.432e+00   0.000e+00
   1.548e+00   1.503e+00   0.000e+00
   1.685e+00   1.432e+00   0.000e+00
   1.350e+00   1.520e+00   0.000e+00
   1.337e+00   1.518e+00   0.000e+00
   1.350e+00   1.520e+00   0.000e+00
   1.337e+00   1.518e+00   0.000e+00
   1.350e+00   1.520e+00   0.000e+00
   1.362e+00   1.521e+00   0.000e+00
   1.350e+00   1.520e+00   0.000e+00
   1.362e+00   1.521e+00   0.000e+00
  -1.500e+00   9.581e-01   0.000e+00
  -1.507e+00   1.005e+00   0.000e+00
  -1.500e+00   9.581e-01   0.000e+00
  -1.507e+00   1.005e+00   0.000e+00
  -1.447e+00   1.375e+00   0.000e+00
  -1.446e+00   1.376e+00   0.000e+00
  -1.447e+00   1.375e+00   0.000e+00
  -1.446e+00   1.376e+00   0.000e+00
   1.331e+00  -1.595e+00   0.000e+00
   1.239e+00  -1.657e+00   0.000e+00
   1.331e+00  -1.595e+00   0.000e+00
   1.239e+00  -1.657e+00   0.000e+00
   1.071e+00  -1.714e+00   0.000e+00
   9.957e-01  -1.716e+00   0.000e+00
   1.071e+00  -1.714e+00   0.000e+00
   9.957e-01  -1.716e+00   0.000e+00
   9.096e-01   8.337e-01   0.000e+00
   8.906e-01   8.749e-01   0.000e+00
   9.096e-01   8.337e-01   0.000e+00
   8.906e-01   8.749e-01   0.000e+00
   1.924e+00   9.898e-01   0.000e+00
   1.894e+00   8.564e-01   0.000e+00
   1.924e+00   9.898e-01   0.000e+00
   1.894e+00   8.564e-01   0.000e+00
  -9.873e-01  -1.918e+00   0.000e+00
  -8.863e-01  -1.799e+00   0.000e+00
  -9.873e-01  -1.918e+00   0.000e+00
  -8.863e-01  -1.799e+00   0.000e+00
   9.957e-01  -1.716e+00   0.000e+00
   9.023e-01  -1.708e+00   0.000e+00
   9.957e-01  -1.716e+00   0.000e+00
   9.023e-01  -1.708e+00   0.000e+00
   1.924e+00   9.978e-01   0.000e+00
   1.896e+00   1.138e+00   0.000e+00
   1.924e+00   9.978e-01   0.000e+00
   1.896e+00   1.138e+00   0.000e+00
   1.770e+00   1.358e+00   0.000e+00
   1.685e+00   1.432e+00   0.000e+00
   1.770e+00   1.358e+00   0.000e+00
   1.685e+00   1.432e+00   0.000e+00
   1.544e+00   1.505e+00   0.000e+00
   1.362e+00   1.521e+00   0.000e+00
   1.544e+00   1.505e+00   0.000e+00
   1.362e+00   1.521e+00   0.000e+00
   6.182e-01  -1.546e+00   0.000e+00
   7.383e-01  -1.651e+00   0.000e+00
   6.182e-01  -1.546e+00   0.000e+00
   7.383e-01  -1.651e+00   0.000e+00
   1.167e+00   1.464e+00   0.000e+00
   1.134e+00   1.445e+00   0.000e+00
   1.167e+00   1.464e+00   0.000e+00
   1.134e+00   1.445e+00   0.000e+00
  -1.446e+00   1.376e+00   0.000e+00
  -1.446e+00   1.377e+00   0.000e+00
  -1.446e+00   1.376e+00   0.000e+00
  -1.446e+00   1.377e+00   0.000e+00
  -1.235e+00   1.561e+00   0.000e+00
  -1.168e+00   1.589e+00   0.000e+00
  -1.235e+00   1.561e+00   0.000e+00
  -1.168e+00   1.589e+00   0.000e+00
   9.023e-01  -1.708e+00   0.000e+00
   7.588e-01  -1.662e+00   0.000e+00
   9.023e-01  -1.708e+00   0.000e+00
   7.588e-01  -1.662e+00   0.000e+00
   1.513e+00  -1.298e+00   0.000e+00
   1.516e+00  -1.285e+00   0.000e+00
   1.513e+00  -1.298e+00   0.000e+00
   1.516e+00  -1.285e+00   0.000e+00
   1.509e+00  -1.111e+00   0.000e+00
   1.517e+00  -1.270e+00   0.000e+00
   1.509e+00  -1.111e+00   0.000e+00
   1.517e+00  -1.270e+00   0.000e+00
   1.131e+00  -1.700e+00   0.000e+00
   1.239e+00  -1.657e+00   0.000e+00
   1.131e+00  -1.700e+00   0.000e+00
   1.239e+00  -1.657e+00   0.000e+00
   1.337e+00   1.518e+00   0.000e+00
   1.167e+00   1.464e+00   0.000e+00
   1.337e+00   1.518e+00   0.000e+00
   1.167e+00   1.464e+00   0.000e+00
  -1.672e+00  -1.133e+00   0.000e+00
  -1.668e+00  -1.128e+00   0.000e+00
  -1.672e+00  -1.133e+00   0.000e+00
  -1.668e+00  -1.128e+00   0.000e+00
   1.842e+00   7.365e-01   0.000e+00
   1.811e+00   6.855e-01   0.000e+00
   1.842e+00   7.365e-01   0.000e+00
   1.811e+00   6.855e-01   0.000e+00
  -1.446e+00   1.377e+00   0.000e+00
  -1.446e+00   1.377e+00   0.000e+00
  -1.446e+00   1.377e+00   0.000e+00
  -1.446e+00   1.377e+00   0.000e+00
  -1.507e+00   1.005e+00   0.000e+00
  -1.513e+00   1.137e+00   0.000e+00
  -1.507e+00   1.005e+00   0.000e+00
  -1.513e+00   1.137e+00   0.000e+00
  -7.984e-01  -1.629e+00   0.000e+00
  -8.352e-01  -1.710e+00   0.000e+00
  -7.984e-01  -1.629e+00   0.000e+00
  -8.352e-01  -1.710e+00   0.000e+00
  -8.863e-01  -1.799e+00   0.000e+00
  -8.352e-01  -1.710e+00   0.000e+00
  -8.863e-01  -1.799e+00   0.000e+00
  -8.352e-01  -1.710e+00   0.000e+00
  -1.487e+00  -1.013e+00   0.000e+00
  -1.628e+00  -1.101e+00   0.000e+00
  -1.487e+00  -1.013e+00   0.000e+00
  -1.628e+00  -1.101e+00   0.000e+00
  -9.359e-01   1.613e+00   0.000e+00
  -1.060e+00   1.611e+00   0.000e+00
  -9.359e-01   1.613e+00   0.000e+00
  -1.060e+00   1.611e+00   0.000e+00
  -1.668e+00  -1.128e+00   0.000e+00
  -1.628e+00  -1.101e+00   0.000e+00
  -1.668e+00  -1.128e+00   0.000e+00
  -1.628e+00  -1.101e+00   0.000e+00
   1.811e+00   6.855e-01   0.000e+00
   1.713e+00   5.911e-01   0.000e+00
   1.811e+00   6.855e-01   0.000e+00
   1.713e+00   5.911e-01   0.000e+00
  -1.446e+00   1.377e+00   0.000e+00
  -1.321e+00   1.505e+00   0.000e+00
  -1.446e+00   1.377e+00   0.000e+00
  -1.321e+00   1.505e+00   0.000e+00
   7.383e-01  -1.651e+00   0.000e+00
   7.588e-01  -1.662e+00   0.000e+00
   7.383e-01  -1.651e+00   0.000e+00
   7.588e-01  -1.662e+00   0.000e+00
   1.449e+00  -1.451e+00   0.000e+00
   1.513e+00  -1.298e+00   0.000e+00
   1.449e+00  -1.451e+00   0.000e+00
   1.513e+00  -1.298e+00   0.000e+00
   1.516e+00  -1.285e+00   0.000e+00
   1.517e+00  -1.270e+00   0.000e+00
   1.516e+00  -1.285e+00   0.000e+00
   1.517e+00  -1.270e+00   0.000e+00
  -9.359e-01   1.613e+00   0.000e+00
  -8.845e-01   1.607e+00   0.000e+00
  -9.359e-01   1.613e+00   0.000e+00
  -8.845e-01   1.607e+00   0.000e+00
  -1.168e+00   1.589e+00   0.000e+00
  -1.060e+00   1.611e+00   0.000e+00
  -1.168e+00   1.589e+00   0.000e+00
  -1.060e+00   1.611e+00   0.000e+00
   1.446e+00  -9.400e-01   0.000e+00
   1.486e+00  -1.024e+00   0.000e+00
   1.446e+00  -9.400e-01   0.000e+00
[...]
CELL_DATA 300
VECTORS normal float
   2.322e-01  -9.727e-01   0.000e+00
  -2.322e-01   9.727e-01   0.000e+00
  -7.681e-01  -6.403e-01   0.000e+00
   7.681e-01   6.403e-01   0.000e+00
  -5.139e-01  -8.579e-01   0.000e+00
   5.139e-01   8.579e-01   0.000e+00
  -4.099e-02  -9.992e-01   0.000e+00
   4.099e-02   9.992e-01   0.000e+00
   2.510e-01  -9.680e-01   0.000e+00
  -2.510e-01   9.680e-01   0.000e+00
  -9.157e-01  -4.018e-01   0.000e+00
   9.157e-01   4.018e-01   0.000e+00
  -8.855e-01  -4.647e-01   0.000e+00
   8.855e-01   4.647e-01   0.000e+00
  -6.621e-01  -7.494e-01   0.000e+00
   6.621e-01   7.494e-01   0.000e+00
  -3.838e-01  -9.234e-01   0.000e+00
   3.838e-01   9.234e-01   0.000e+00
   4.264e-01  -9.045e-01   0.000e+00
  -4.264e-01   9.045e-01   0.000e+00
  -1.647e-01  -9.863e-01   0.000e+00
   1.647e-01   9.863e-01   0.000e+00
  -9.438e-01   3.305e-01   0.000e+00
   9.438e-01  -3.305e-01   0.000e+00
  -9.925e-01  -1.223e-01   0.000e+00
   9.925e-01   1.223e-01   0.000e+00
   9.997e-01  -2.565e-02   0.000e+00
  -9.997e-01   2.565e-02   0.000e+00
   1.102e-01  -9.939e-01   0.000e+00
  -1.102e-01   9.939e-01   0.000e+00
   7.149e-01   6.993e-01   0.000e+00
  -7.149e-01  -6.993e-01   0.000e+00
  -3.413e-01  -9.400e-01   0.000e+00
   3.413e-01   9.400e-01   0.000e+00
   8.764e-01   4.815e-01   0.000e+00
  -8.764e-01  -4.815e-01   0.000e+00
  -9.984e-01   5.571e-02   0.000e+00
   9.984e-01  -5.571e-02   0.000e+00
   5.975e-01  -8.019e-01   0.000e+00
  -5.975e-01   8.019e-01   0.000e+00
  -8.538e-01   5.206e-01   0.000e+00
   8.538e-01  -5.206e-01   0.000e+00
   8.298e-01  -5.581e-01   0.000e+00
  -8.298e-01   5.581e-01   0.000e+00
   2.399e-01   9.708e-01   0.000e+00
  -2.399e-01  -9.708e-01   0.000e+00
   9.219e-01   3.874e-01   0.000e+00
  -9.219e-01  -3.874e-01   0.000e+00
   9.175e-01  -3.978e-01   0.000e+00
  -9.175e-01   3.978e-01   0.000e+00
   7.062e-01  -7.080e-01   0.000e+00
  -7.062e-01   7.080e-01   0.000e+00
   4.023e-01   9.155e-01   0.000e+00
  -4.023e-01  -9.155e-01   0.000e+00
   4.615e-01   8.871e-01   0.000e+00
  -4.615e-01  -8.871e-01   0.000e+00
  -1.844e-01   9.828e-01   0.000e+00
   1.844e-01  -9.828e-01   0.000e+00
  -6.140e-02   9.981e-01   0.000e+00
   6.140e-02  -9.981e-01   0.000e+00
  -9.884e-01  -1.519e-01   0.000e+00
   9.884e-01   1.519e-01   0.000e+00
  -9.061e-01   4.231e-01   0.000e+00
   9.061e-01  -4.231e-01   0.000e+00
   5.553e-01  -8.316e-01   0.000e+00
  -5.553e-01   8.316e-01   0.000e+00
   2.985e-02  -9.996e-01   0.000e+00
  -2.985e-02   9.996e-01   0.000e+00
  -9.081e-01  -4.187e-01   0.000e+00
   9.081e-01   4.187e-01   0.000e+00
   9.767e-01  -2.146e-01   0.000e+00
  -9.767e-01   2.146e-01   0.000e+00
   7.623e-01  -6.472e-01   0.000e+00
  -7.623e-01   6.472e-01   0.000e+00
  -8.407e-02  -9.965e-01   0.000e+00
   8.407e-02   9.965e-01   0.000e+00
   9.807e-01   1.956e-01   0.000e+00
  -9.807e-01  -1.956e-01   0.000e+00
   6.554e-01   7.553e-01   0.000e+00
  -6.554e-01  -7.553e-01   0.000e+00
   9.103e-02   9.958e-01   0.000e+00
  -9.103e-02  -9.958e-01   0.000e+00
  -6.604e-01  -7.509e-01   0.000e+00
   6.604e-01   7.509e-01   0.000e+00
  -4.776e-01   8.786e-01   0.000e+00
   4.776e-01  -8.786e-01   0.000e+00
  -8.621e-01   5.068e-01   0.000e+00
   8.621e-01  -5.068e-01   0.000e+00
  -3.915e-01   9.202e-01   0.000e+00
   3.915e-01  -9.202e-01   0.000e+00
  -3.051e-01  -9.523e-01   0.000e+00
   3.051e-01   9.523e-01   0.000e+00
   9.633e-01  -2.686e-01   0.000e+00
  -9.633e-01   2.686e-01   0.000e+00
   9.985e-01   5.449e-02   0.000e+00
  -9.985e-01  -5.449e-02   0.000e+00
   3.657e-01  -9.308e-01   0.000e+00
  -3.657e-01   9.308e-01   0.000e+00
  -3.051e-01   9.523e-01   0.000e+00
   3.051e-01  -9.523e-01   0.000e+00
  -7.909e-01   6.119e-01   0.000e+00
   7.909e-01  -6.119e-01   0.000e+00
   8.522e-01  -5.233e-01   0.000e+00
  -8.522e-01   5.233e-01   0.000e+00
  -7.650e-01   6.440e-01   0.000e+00
   7.650e-01  -6.440e-01   0.000e+00
  -9.990e-01  -4.487e-02   0.000e+00
   9.990e-01   4.487e-02   0.000e+00
   9.105e-01  -4.135e-01   0.000e+00
  -9.105e-01   4.135e-01   0.000e+00
   8.670e-01  -4.983e-01   0.000e+00
  -8.670e-01   4.983e-01   0.000e+00
  -5.281e-01   8.492e-01   0.000e+00
   5.281e-01  -8.492e-01   0.000e+00
  -1.307e-02   9.999e-01   0.000e+00
   1.307e-02  -9.999e-01   0.000e+00
  -5.468e-01   8.373e-01   0.000e+00
   5.468e-01  -8.373e-01   0.000e+00
   6.920e-01  -7.219e-01   0.000e+00
  -6.920e-01   7.219e-01   0.000e+00
  -7.173e-01   6.968e-01   0.000e+00
   7.173e-01  -6.968e-01   0.000e+00
  -4.761e-01  -8.794e-01   0.000e+00
   4.761e-01   8.794e-01   0.000e+00
   9.230e-01  -3.849e-01   0.000e+00
  -9.230e-01   3.849e-01   0.000e+00
   9.981e-01  -6.146e-02   0.000e+00
  -9.981e-01   6.146e-02   0.000e+00
   1.190e-01   9.929e-01   0.000e+00
  -1.190e-01  -9.929e-01   0.000e+00
  -2.006e-01   9.797e-01   0.000e+00
   2.006e-01  -9.797e-01   0.000e+00
   9.054e-01   4.245e-01   0.000e+00
  -9.054e-01  -4.245e-01   0.000e+00
   5.330e-01  -8.461e-01   0.000e+00
  -5.330e-01   8.461e-01   0.000e+00
  -9.942e-01   1.079e-01   0.000e+00
   9.942e-01  -1.079e-01   0.000e+00
  -6.726e-01   7.400e-01   0.000e+00
   6.726e-01  -7.400e-01   0.000e+00
   3.818e-01  -9.242e-01   0.000e+00
  -3.818e-01   9.242e-01   0.000e+00
  -9.420e-01   3.355e-01   0.000e+00
   9.420e-01  -3.355e-01   0.000e+00
   9.671e-01   2.542e-01   0.000e+00
  -9.671e-01  -2.542e-01   0.000e+00
  -4.030e-01   9.152e-01   0.000e+00
   4.030e-01  -9.152e-01   0.000e+00
  -6.175e-01   7.865e-01   0.000e+00
   6.175e-01  -7.865e-01   0.000e+00
  -8.644e-01   5.029e-01   0.000e+00
   8.644e-01  -5.029e-01   0.000e+00
  -5.433e-01   8.395e-01   0.000e+00
   5.433e-01  -8.395e-01   0.000e+00
   9.999e-01   1.715e-02   0.000e+00
  -9.999e-01  -1.715e-02   0.000e+00
  -8.000e-01  -6.001e-01   0.000e+00
   8.000e-01   6.001e-01   0.000e+00
   9.936e-01  -1.129e-01   0.000e+00
  -9.936e-01   1.129e-01   0.000e+00
   6.611e-01   7.503e-01   0.000e+00
  -6.611e-01  -7.503e-01   0.000e+00
   3.168e-01   9.485e-01   0.000e+00
  -3.168e-01  -9.485e-01   0.000e+00
  -9.092e-01  -4.163e-01   0.000e+00
   9.092e-01   4.163e-01   0.000e+00
   7.402e-02  -9.973e-01   0.000e+00
  -7.402e-02   9.973e-01   0.000e+00
   8.227e-01   5.685e-01   0.000e+00
  -8.227e-01  -5.685e-01   0.000e+00
  -9.477e-02   9.955e-01   0.000e+00
   9.477e-02  -9.955e-01   0.000e+00
   5.601e-01   8.284e-01   0.000e+00
  -5.601e-01  -8.284e-01   0.000e+00
   6.034e-01   7.975e-01   0.000e+00
  -6.034e-01  -7.975e-01   0.000e+00
   3.922e-01   9.199e-01   0.000e+00
  -3.922e-01  -9.199e-01   0.000e+00
  -8.810e-01  -4.730e-01   0.000e+00
   8.810e-01   4.730e-01   0.000e+00
  -7.936e-01   6.084e-01   0.000e+00
   7.936e-01  -6.084e-01   0.000e+00
   4.115e-01   9.114e-01   0.000e+00
  -4.115e-01  -9.114e-01   0.000e+00
  -9.641e-01  -2.656e-01   0.000e+00
   9.641e-01   2.656e-01   0.000e+00
  -8.194e-01  -5.732e-01   0.000e+00
   8.194e-01   5.732e-01   0.000e+00
   2.147e-01  -9.767e-01   0.000e+00
  -2.147e-01   9.767e-01   0.000e+00
  -4.521e-01  -8.920e-01   0.000e+00
   4.521e-01   8.920e-01   0.000e+00
   1.342e-01   9.910e-01   0.000e+00
  -1.342e-01  -9.910e-01   0.000e+00
  -2.373e-01   9.714e-01   0.000e+00
   2.373e-01  -9.714e-01   0.000e+00
   2.761e-01   9.611e-01   0.000e+00
  -2.761e-01  -9.611e-01   0.000e+00
   9.696e-01   2.447e-01   0.000e+00
  -9.696e-01  -2.447e-01   0.000e+00
  -9.886e-01  -1.506e-01   0.000e+00
   9.886e-01   1.506e-01   0.000e+00
  -9.998e-01  -2.220e-02   0.000e+00
   9.998e-01   2.220e-02   0.000e+00
   6.160e-01   7.877e-01   0.000e+00
  -6.160e-01  -7.877e-01   0.000e+00
  -6.942e-01  -7.198e-01   0.000e+00
   6.942e-01   7.198e-01   0.000e+00
   9.570e-01   2.900e-01   0.000e+00
  -9.570e-01  -2.900e-01   0.000e+00
  -5.447e-01  -8.386e-01   0.000e+00
   5.447e-01   8.386e-01   0.000e+00
   7.644e-01   6.448e-01   0.000e+00
  -7.644e-01  -6.448e-01   0.000e+00
  -9.446e-01   3.283e-01   0.000e+00
   9.446e-01  -3.283e-01   0.000e+00
  -9.809e-01   1.946e-01   0.000e+00
   9.809e-01  -1.946e-01   0.000e+00
   3.424e-01   9.395e-01   0.000e+00
  -3.424e-01  -9.395e-01   0.000e+00
   4.997e-03   1.000e+00   0.000e+00
  -4.997e-03  -1.000e+00   0.000e+00
  -1.442e-01  -9.895e-01   0.000e+00
   1.442e-01   9.895e-01   0.000e+00
  -7.274e-01  -6.862e-01   0.000e+00
   7.274e-01   6.862e-01   0.000e+00
   5.815e-01   8.135e-01   0.000e+00
  -5.815e-01  -8.135e-01   0.000e+00
   8.743e-01   4.854e-01   0.000e+00
  -8.743e-01  -4.854e-01   0.000e+00
  -9.513e-01   3.084e-01   0.000e+00
   9.513e-01  -3.084e-01   0.000e+00
   8.024e-01   5.967e-01   0.000e+00
  -8.024e-01  -5.967e-01   0.000e+00
  -7.784e-01   6.278e-01   0.000e+00
   7.784e-01  -6.278e-01   0.000e+00
  -1.497e-01  -9.887e-01   0.000e+00
   1.497e-01   9.887e-01   0.000e+00
   4.462e-01   8.949e-01   0.000e+00
  -4.462e-01  -8.949e-01   0.000e+00
  -9.970e-01   7.791e-02   0.000e+00
   9.970e-01  -7.791e-02   0.000e+00
   8.561e-01   5.168e-01   0.000e+00
  -8.561e-01  -5.168e-01   0.000e+00
  -9.759e-01  -2.184e-01   0.000e+00
   9.759e-01   2.184e-01   0.000e+00
   2.766e-01   9.610e-01   0.000e+00
  -2.766e-01  -9.610e-01   0.000e+00
  -3.333e-01  -9.428e-01   0.000e+00
   3.333e-01   9.428e-01   0.000e+00
   7.004e-01   7.138e-01   0.000e+00
  -7.004e-01  -7.138e-01   0.000e+00
  -6.502e-01   7.598e-01   0.000e+00
   6.502e-01  -7.598e-01   0.000e+00
  -4.907e-01  -8.713e-01   0.000e+00
   4.907e-01   8.713e-01   0.000e+00
  -3.055e-01  -9.522e-01   0.000e+00
   3.055e-01   9.522e-01   0.000e+00
  -3.127e-01   9.498e-01   0.000e+00
   3.127e-01  -9.498e-01   0.000e+00
  -1.578e-01   9.875e-01   0.000e+00
   1.578e-01  -9.875e-01   0.000e+00
  -8.904e-01   4.552e-01   0.000e+00
   8.904e-01  -4.552e-01   0.000e+00
   9.938e-01   1.109e-01   0.000e+00
  -9.938e-01  -1.109e-01   0.000e+00
   9.069e-01   4.214e-01   0.000e+00
  -9.069e-01  -4.214e-01   0.000e+00
   2.021e-01  -9.794e-01   0.000e+00
  -2.021e-01   9.794e-01   0.000e+00
   9.509e-01   3.095e-01   0.000e+00
  -9.509e-01  -3.095e-01   0.000e+00
  -6.613e-01  -7.501e-01   0.000e+00
   6.613e-01   7.501e-01   0.000e+00
  -8.186e-01  -5.743e-01   0.000e+00
   8.186e-01   5.743e-01   0.000e+00
   2.806e-02  -9.996e-01   0.000e+00
  -2.806e-02   9.996e-01   0.000e+00
   9.652e-01  -2.614e-01   0.000e+00
  -9.652e-01   2.614e-01   0.000e+00
   2.850e-01  -9.585e-01   0.000e+00
  -2.850e-01   9.585e-01   0.000e+00
   9.029e-01  -4.299e-01   0.000e+00
  -9.029e-01   4.299e-01   0.000e+00
  -5.105e-01   8.599e-01   0.000e+00
   5.105e-01  -8.599e-01   0.000e+00
   9.994e-01  -3.582e-02   0.000e+00
  -9.994e-01   3.582e-02   0.000e+00
  -9.054e-01  -4.245e-01   0.000e+00
   9.054e-01   4.245e-01   0.000e+00
   4.882e-01  -8.728e-01   0.000e+00
  -4.882e-01   8.728e-01   0.000e+00
   9.996e-01  -2.726e-02   0.000e+00
  -9.996e-01   2.726e-02   0.000e+00
   8.287e-01  -5.597e-01   0.000e+00
  -8.287e-01   5.597e-01   0.000e+00
   7.422e-01  -6.701e-01   0.000e+00
  -7.422e-01   6.701e-01   0.000e+00
   5.753e-01  -8.179e-01   0.000e+00
  -5.753e-01   8.179e-01   0.000e+00

POINT_DATA 600
VECTORS displacement float
  -9.547e-01   0.000e+00   0.000e+00
  -9.413e-01   0.000e+00   0.000e+00
  -9.503e-01   0.000e+00   0.000e+00
  -9.355e-01   0.000e+00   0.000e+00
  -6.325e-01   0.000e+00   0.000e+00
  -6.311e-01   0.000e+00   0.000e+00
  -6.279e-01   0.000e+00   0.000e+00
  -6.268e-01   0.000e+00   0.000e+00
  -6.311e-01   0.000e+00   0.000e+00
  -6.318e-01   0.000e+00   0.000e+00
  -6.280e-01   0.000e+00   0.000e+00
  -6.285e-01   0.000e+00   0.000e+00
  -6.806e-01   0.000e+00   0.000e+00
  -7.128e-01   0.000e+00   0.000e+00
  -6.770e-01   0.000e+00   0.000e+00
  -7.109e-01   0.000e+00   0.000e+00
  -7.747e-01   0.000e+00   0.000e+00
  -7.497e-01   0.000e+00   0.000e+00
  -7.750e-01   0.000e+00   0.000e+00
  -7.450e-01   0.000e+00   0.000e+00
  -6.781e-01   0.000e+00   0.000e+00
  -6.361e-01   0.000e+00   0.000e+00
  -6.789e-01   0.000e+00   0.000e+00
  -6.310e-01   0.000e+00   0.000e+00
  -6.325e-01   0.000e+00   0.000e+00
  -6.361e-01   0.000e+00   0.000e+00
  -6.279e-01   0.000e+00   0.000e+00
  -6.310e-01   0.000e+00   0.000e+00
  -6.311e-01   0.000e+00   0.000e+00
  -6.311e-01   0.000e+00   0.000e+00
  -6.268e-01   0.000e+00   0.000e+00
  -6.280e-01   0.000e+00   0.000e+00
  -6.318e-01   0.000e+00   0.000e+00
  -6.335e-01   0.000e+00   0.000e+00
  -6.285e-01   0.000e+00   0.000e+00
  -6.301e-01   0.000e+00   0.000e+00
  -7.747e-01   0.000e+00   0.000e+00
  -8.522e-01   0.000e+00   0.000e+00
  -7.750e-01   0.000e+00   0.000e+00
  -8.507e-01   0.000e+00   0.000e+00
  -6.806e-01   0.000e+00   0.000e+00
  -6.625e-01   0.000e+00   0.000e+00
  -6.770e-01   0.000e+00   0.000e+00
  -6.629e-01   0.000e+00   0.000e+00
  -8.317e-01   0.000e+00   0.000e+00
  -7.465e-01   0.000e+00   0.000e+00
  -8.326e-01   0.000e+00   0.000e+00
  -7.442e-01   0.000e+00   0.000e+00
  -6.781e-01   0.000e+00   0.000e+00
  -7.409e-01   0.000e+00   0.000e+00
  -6.789e-01   0.000e+00   0.000e+00
  -7.384e-01   0.000e+00   0.000e+00
  -8.661e-01   0.000e+00   0.000e+00
  -8.684e-01   0.000e+00   0.000e+00
  -8.628e-01   0.000e+00   0.000e+00
  -8.653e-01   0.000e+00   0.000e+00
  -7.128e-01   0.000e+00   0.000e+00
  -7.497e-01   0.000e+00   0.000e+00
  -7.109e-01   0.000e+00   0.000e+00
  -7.450e-01   0.000e+00   0.000e+00
  -8.244e-01   0.000e+00   0.000e+00
  -8.262e-01   0.000e+00   0.000e+00
  -8.195e-01   0.000e+00   0.000e+00
  -8.209e-01   0.000e+00   0.000e+00
  -6.335e-01   0.000e+00   0.000e+00
  -6.625e-01   0.000e+00   0.000e+00
  -6.301e-01   0.000e+00   0.000e+00
  -6.629e-01   0.000e+00   0.000e+00
  -8.244e-01   0.000e+00   0.000e+00
  -8.266e-01   0.000e+00   0.000e+00
  -8.195e-01   0.000e+00   0.000e+00
  -8.207e-01   0.000e+00   0.000e+00
  -7.465e-01   0.000e+00   0.000e+00
  -7.409e-01   0.000e+00   0.000e+00
  -7.442e-01   0.000e+00   0.000e+00
  -7.384e-01   0.000e+00   0.000e+00
  -8.522e-01   0.000e+00   0.000e+00
  -8.624e-01   0.000e+00   0.000e+00
  -8.507e-01   0.000e+00   0.000e+00
  -8.592e-01   0.000e+00   0.000e+00
  -8.317e-01   0.000e+00   0.000e+00
  -9.195e-01   0.000e+00   0.000e+00
  -8.326e-01   0.000e+00   0.000e+00
  -9.144e-01   0.000e+00   0.000e+00
  -9.244e-01   0.000e+00   0.000e+00
  -9.382e-01   0.000e+00   0.000e+00
  -9.196e-01   0.000e+00   0.000e+00
  -9.362e-01   0.000e+00   0.000e+00
  -8.660e-01   0.000e+00   0.000e+00
  -8.663e-01   0.000e+00   0.000e+00
  -8.636e-01   0.000e+00   0.000e+00
  -8.639e-01   0.000e+00   0.000e+00
  -8.266e-01   0.000e+00   0.000e+00
  -8.405e-01   0.000e+00   0.000e+00
  -8.207e-01   0.000e+00   0.000e+00
  -8.405e-01   0.000e+00   0.000e+00
  -9.739e-01   0.000e+00   0.000e+00
  -9.212e-01   0.000e+00   0.000e+00
  -9.706e-01   0.000e+00   0.000e+00
  -9.211e-01   0.000e+00   0.000e+00
  -9.244e-01   0.000e+00   0.000e+00
  -9.207e-01   0.000e+00   0.000e+00
  -9.196e-01   0.000e+00   0.000e+00
  -9.185e-01   0.000e+00   0.000e+00
  -8.660e-01   0.000e+00   0.000e+00
  -8.653e-01   0.000e+00   0.000e+00
  -8.636e-01   0.000e+00   0.000e+00
  -8.628e-01   0.000e+00   0.000e+00
  -8.653e-01   0.000e+00   0.000e+00
  -8.369e-01   0.000e+00   0.000e+00
  -8.628e-01   0.000e+00   0.000e+00
  -8.364e-01   0.000e+00   0.000e+00
  -9.351e-01   0.000e+00   0.000e+00
  -9.401e-01   0.000e+00   0.000e+00
  -9.314e-01   0.000e+00   0.000e+00
  -9.361e-01   0.000e+00   0.000e+00
  -9.351e-01   0.000e+00   0.000e+00
  -9.297e-01   0.000e+00   0.000e+00
  -9.314e-01   0.000e+00   0.000e+00
  -9.257e-01   0.000e+00   0.000e+00
  -1.033e+00   0.000e+00   0.000e+00
  -1.017e+00   0.000e+00   0.000e+00
  -1.032e+00   0.000e+00   0.000e+00
  -1.013e+00   0.000e+00   0.000e+00
  -9.294e-01   0.000e+00   0.000e+00
  -9.293e-01   0.000e+00   0.000e+00
  -9.271e-01   0.000e+00   0.000e+00
  -9.270e-01   0.000e+00   0.000e+00
  -9.207e-01   0.000e+00   0.000e+00
  -9.258e-01   0.000e+00   0.000e+00
  -9.185e-01   0.000e+00   0.000e+00
  -9.246e-01   0.000e+00   0.000e+00
  -9.547e-01   0.000e+00   0.000e+00
  -9.725e-01   0.000e+00   0.000e+00
  -9.503e-01   0.000e+00   0.000e+00
  -9.662e-01   0.000e+00   0.000e+00
  -1.313e+00   0.000e+00   0.000e+00
  -1.307e+00   0.000e+00   0.000e+00
  -1.310e+00   0.000e+00   0.000e+00
  -1.305e+00   0.000e+00   0.000e+00
  -8.684e-01   0.000e+00   0.000e+00
  -9.212e-01   0.000e+00   0.000e+00
  -8.653e-01   0.000e+00   0.000e+00
  -9.211e-01   0.000e+00   0.000e+00
  -8.624e-01   0.000e+00   0.000e+00
  -9.541e-01   0.000e+00   0.000e+00
  -8.592e-01   0.000e+00   0.000e+00
  -9.529e-01   0.000e+00   0.000e+00
  -9.725e-01   0.000e+00   0.000e+00
  -1.001e+00   0.000e+00   0.000e+00
  -9.662e-01   0.000e+00   0.000e+00
  -1.001e+00   0.000e+00   0.000e+00
  -8.661e-01   0.000e+00   0.000e+00
  -8.405e-01   0.000e+00   0.000e+00
  -8.628e-01   0.000e+00   0.000e+00
  -8.405e-01   0.000e+00   0.000e+00
  -8.262e-01   0.000e+00   0.000e+00
  -8.369e-01   0.000e+00   0.000e+00
  -8.209e-01   0.000e+00   0.000e+00
  -8.364e-01   0.000e+00   0.000e+00
  -8.663e-01   0.000e+00   0.000e+00
  -9.297e-01   0.000e+00   0.000e+00
  -8.639e-01   0.000e+00   0.000e+00
  -9.257e-01   0.000e+00   0.000e+00
  -1.140e+00   0.000e+00   0.000e+00
  -1.066e+00   0.000e+00   0.000e+00
  -1.140e+00   0.000e+00   0.000e+00
  -1.064e+00   0.000e+00   0.000e+00
  -1.021e+00   0.000e+00   0.000e+00
  -1.039e+00   0.000e+00   0.000e+00
  -1.017e+00   0.000e+00   0.000e+00
  -1.035e+00   0.000e+00   0.000e+00
  -9.293e-01   0.000e+00   0.000e+00
  -9.292e-01   0.000e+00   0.000e+00
  -9.270e-01   0.000e+00   0.000e+00
  -9.270e-01   0.000e+00   0.000e+00
  -9.347e-01   0.000e+00   0.000e+00
  -9.444e-01   0.000e+00   0.000e+00
  -9.321e-01   0.000e+00   0.000e+00
  -9.414e-01   0.000e+00   0.000e+00
  -1.001e+00   0.000e+00   0.000e+00
  -1.056e+00   0.000e+00   0.000e+00
  -1.001e+00   0.000e+00   0.000e+00
  -1.055e+00   0.000e+00   0.000e+00
  -9.687e-01   0.000e+00   0.000e+00
  -9.726e-01   0.000e+00   0.000e+00
  -9.637e-01   0.000e+00   0.000e+00
  -9.677e-01   0.000e+00   0.000e+00
  -1.036e+00   0.000e+00   0.000e+00
  -9.766e-01   0.000e+00   0.000e+00
  -1.034e+00   0.000e+00   0.000e+00
  -9.714e-01   0.000e+00   0.000e+00
  -9.413e-01   0.000e+00   0.000e+00
  -9.258e-01   0.000e+00   0.000e+00
  -9.355e-01   0.000e+00   0.000e+00
  -9.246e-01   0.000e+00   0.000e+00
  -9.401e-01   0.000e+00   0.000e+00
  -1.021e+00   0.000e+00   0.000e+00
  -9.361e-01   0.000e+00   0.000e+00
  -1.017e+00   0.000e+00   0.000e+00
  -9.195e-01   0.000e+00   0.000e+00
  -9.230e-01   0.000e+00   0.000e+00
  -9.144e-01   0.000e+00   0.000e+00
  -9.182e-01   0.000e+00   0.000e+00
  -9.739e-01   0.000e+00   0.000e+00
  -1.001e+00   0.000e+00   0.000e+00
  -9.706e-01   0.000e+00   0.000e+00
  -9.982e-01   0.000e+00   0.000e+00
  -9.292e-01   0.000e+00   0.000e+00
  -9.292e-01   0.000e+00   0.000e+00
  -9.270e-01   0.000e+00   0.000e+00
  -9.269e-01   0.000e+00   0.000e+00
  -1.017e+00   0.000e+00   0.000e+00
  -9.824e-01   0.000e+00   0.000e+00
  -1.013e+00   0.000e+00   0.000e+00
  -9.815e-01   0.000e+00   0.000e+00
  -1.059e+00   0.000e+00   0.000e+00
  -1.011e+00   0.000e+00   0.000e+00
  -1.057e+00   0.000e+00   0.000e+00
  -1.008e+00   0.000e+00   0.000e+00
  -9.541e-01   0.000e+00   0.000e+00
  -1.011e+00   0.000e+00   0.000e+00
  -9.529e-01   0.000e+00   0.000e+00
  -1.008e+00   0.000e+00   0.000e+00
  -1.038e+00   0.000e+00   0.000e+00
  -9.491e-01   0.000e+00   0.000e+00
  -1.032e+00   0.000e+00   0.000e+00
  -9.426e-01   0.000e+00   0.000e+00
  -1.000e+00   0.000e+00   0.000e+00
  -9.678e-01   0.000e+00   0.000e+00
  -9.945e-01   0.000e+00   0.000e+00
  -9.670e-01   0.000e+00   0.000e+00
  -9.230e-01   0.000e+00   0.000e+00
  -9.491e-01   0.000e+00   0.000e+00
  -9.182e-01   0.000e+00   0.000e+00
  -9.426e-01   0.000e+00   0.000e+00
  -1.001e+00   0.000e+00   0.000e+00
  -1.070e+00   0.000e+00   0.000e+00