# vtk DataFile Version 2.0
Interface mesh generated by generateVTK.m
ASCII
DATASET UNSTRUCTURED_GRID

POINTS 320 float
  -1.707e-01  -4.697e-01   0.000e+00
  -1.864e-01  -4.634e-01   0.000e+00
  -1.707e-01  -4.697e-01   0.000e+00
  -1.864e-01  -4.634e-01   0.000e+00
  -1.707e-01  -4.697e-01   0.000e+00
  -1.220e-01  -4.843e-01   0.000e+00
  -1.707e-01  -4.697e-01   0.000e+00
  -1.220e-01  -4.843e-01   0.000e+00
  -1.220e-01  -4.843e-01   0.000e+00
  -7.317e-02  -4.941e-01   0.000e+00
  -1.220e-01  -4.843e-01   0.000e+00
  -7.317e-02  -4.941e-01   0.000e+00
  -7.317e-02  -4.941e-01   0.000e+00
  -2.439e-02  -4.989e-01   0.000e+00
  -7.317e-02  -4.941e-01   0.000e+00
  -2.439e-02  -4.989e-01   0.000e+00
  -2.439e-02  -4.989e-01   0.000e+00
   2.439e-02  -4.989e-01   0.000e+00
  -2.439e-02  -4.989e-01   0.000e+00
   2.439e-02  -4.989e-01   0.000e+00
   2.439e-02  -4.989e-01   0.000e+00
   7.317e-02  -4.941e-01   0.000e+00
   2.439e-02  -4.989e-01   0.000e+00
   7.317e-02  -4.941e-01   0.000e+00
   7.317e-02  -4.941e-01   0.000e+00
   1.220e-01  -4.843e-01   0.000e+00
   7.317e-02  -4.941e-01   0.000e+00
   1.220e-01  -4.843e-01   0.000e+00
   1.220e-01  -4.843e-01   0.000e+00
   1.707e-01  -4.697e-01   0.000e+00
   1.220e-01  -4.843e-01   0.000e+00
   1.707e-01  -4.697e-01   0.000e+00
   1.707e-01  -4.697e-01   0.000e+00
   1.864e-01  -4.634e-01   0.000e+00
   1.707e-01  -4.697e-01   0.000e+00
   1.864e-01  -4.634e-01   0.000e+00
  -2.683e-01  -4.216e-01   0.000e+00
  -2.787e-01  -4.146e-01   0.000e+00
  -2.683e-01  -4.216e-01   0.000e+00
  -2.787e-01  -4.146e-01   0.000e+00
  -2.683e-01  -4.216e-01   0.000e+00
  -2.195e-01  -4.487e-01   0.000e+00
  -2.683e-01  -4.216e-01   0.000e+00
  -2.195e-01  -4.487e-01   0.000e+00
  -1.864e-01  -4.634e-01   0.000e+00
  -2.195e-01  -4.487e-01   0.000e+00
  -1.864e-01  -4.634e-01   0.000e+00
  -2.195e-01  -4.487e-01   0.000e+00
   1.864e-01  -4.634e-01   0.000e+00
   2.195e-01  -4.487e-01   0.000e+00
   1.864e-01  -4.634e-01   0.000e+00
   2.195e-01  -4.487e-01   0.000e+00
   2.195e-01  -4.487e-01   0.000e+00
   2.683e-01  -4.216e-01   0.000e+00
   2.195e-01  -4.487e-01   0.000e+00
   2.683e-01  -4.216e-01   0.000e+00
   2.683e-01  -4.216e-01   0.000e+00
   2.787e-01  -4.146e-01   0.000e+00
   2.683e-01  -4.216e-01   0.000e+00
   2.787e-01  -4.146e-01   0.000e+00
  -3.171e-01  -3.859e-01   0.000e+00
  -3.399e-01  -3.659e-01   0.000e+00
  -3.171e-01  -3.859e-01   0.000e+00
  -3.399e-01  -3.659e-01   0.000e+00
  -2.787e-01  -4.146e-01   0.000e+00
  -3.171e-01  -3.859e-01   0.000e+00
  -2.787e-01  -4.146e-01   0.000e+00
  -3.171e-01  -3.859e-01   0.000e+00
   2.787e-01  -4.146e-01   0.000e+00
   3.171e-01  -3.859e-01   0.000e+00
   2.787e-01  -4.146e-01   0.000e+00
   3.171e-01  -3.859e-01   0.000e+00
   3.171e-01  -3.859e-01   0.000e+00
   3.399e-01  -3.659e-01   0.000e+00
   3.171e-01  -3.859e-01   0.000e+00
   3.399e-01  -3.659e-01   0.000e+00
  -3.659e-01  -3.399e-01   0.000e+00
  -3.859e-01  -3.171e-01   0.000e+00
  -3.659e-01  -3.399e-01   0.000e+00
  -3.859e-01  -3.171e-01   0.000e+00
  -3.399e-01  -3.659e-01   0.000e+00
  -3.659e-01  -3.399e-01   0.000e+00
  -3.399e-01  -3.659e-01   0.000e+00
  -3.659e-01  -3.399e-01   0.000e+00
   3.399e-01  -3.659e-01   0.000e+00
   3.659e-01  -3.399e-01   0.000e+00
   3.399e-01  -3.659e-01   0.000e+00
   3.659e-01  -3.399e-01   0.000e+00
   3.659e-01  -3.399e-01   0.000e+00
   3.859e-01  -3.171e-01   0.000e+00
   3.659e-01  -3.399e-01   0.000e+00
   3.859e-01  -3.171e-01   0.000e+00
  -4.146e-01  -2.787e-01   0.000e+00
  -4.216e-01  -2.683e-01   0.000e+00
  -4.146e-01  -2.787e-01   0.000e+00
  -4.216e-01  -2.683e-01   0.000e+00
  -3.859e-01  -3.171e-01   0.000e+00
  -4.146e-01  -2.787e-01   0.000e+00
  -3.859e-01  -3.171e-01   0.000e+00
  -4.146e-01  -2.787e-01   0.000e+00
   3.859e-01  -3.171e-01   0.000e+00
   4.146e-01  -2.787e-01   0.000e+00
   3.859e-01  -3.171e-01   0.000e+00
   4.146e-01  -2.787e-01   0.000e+00
   4.146e-01  -2.787e-01   0.000e+00
   4.216e-01  -2.683e-01   0.000e+00
   4.146e-01  -2.787e-01   0.000e+00
   4.216e-01  -2.683e-01   0.000e+00
  -4.216e-01  -2.683e-01   0.000e+00
  -4.487e-01  -2.195e-01   0.000e+00
  -4.216e-01  -2.683e-01   0.000e+00
  -4.487e-01  -2.195e-01   0.000e+00
   4.216e-01  -2.683e-01   0.000e+00
   4.487e-01  -2.195e-01   0.000e+00
   4.216e-01  -2.683e-01   0.000e+00
   4.487e-01  -2.195e-01   0.000e+00
  -4.634e-01  -1.864e-01   0.000e+00
  -4.697e-01  -1.707e-01   0.000e+00
  -4.634e-01  -1.864e-01   0.000e+00
  -4.697e-01  -1.707e-01   0.000e+00
  -4.487e-01  -2.195e-01   0.000e+00
  -4.634e-01  -1.864e-01   0.000e+00
  -4.487e-01  -2.195e-01   0.000e+00
  -4.634e-01  -1.864e-01   0.000e+00
   4.487e-01  -2.195e-01   0.000e+00
   4.634e-01  -1.864e-01   0.000e+00
   4.487e-01  -2.195e-01   0.000e+00
   4.634e-01  -1.864e-01   0.000e+00
   4.634e-01  -1.864e-01   0.000e+00
   4.697e-01  -1.707e-01   0.000e+00
   4.634e-01  -1.864e-01   0.000e+00
   4.697e-01  -1.707e-01   0.000e+00
  -4.697e-01  -1.707e-01   0.000e+00
  -4.843e-01  -1.220e-01   0.000e+00
  -4.697e-01  -1.707e-01   0.000e+00
  -4.843e-01  -1.220e-01   0.000e+00
   4.697e-01  -1.707e-01   0.000e+00
   4.843e-01  -1.220e-01   0.000e+00
   4.697e-01  -1.707e-01   0.000e+00
   4.843e-01  -1.220e-01   0.000e+00
  -4.843e-01  -1.220e-01   0.000e+00
  -4.941e-01  -7.317e-02   0.000e+00
  -4.843e-01  -1.220e-01   0.000e+00
  -4.941e-01  -7.317e-02   0.000e+00
   4.843e-01  -1.220e-01   0.000e+00
   4.941e-01  -7.317e-02   0.000e+00
   4.843e-01  -1.220e-01   0.000e+00
   4.941e-01  -7.317e-02   0.000e+00
  -4.941e-01  -7.317e-02   0.000e+00
  -4.989e-01  -2.439e-02   0.000e+00
  -4.941e-01  -7.317e-02   0.000e+00
  -4.989e-01  -2.439e-02   0.000e+00
   4.941e-01  -7.317e-02   0.000e+00
   4.989e-01  -2.439e-02   0.000e+00
   4.941e-01  -7.317e-02   0.000e+00
   4.989e-01  -2.439e-02   0.000e+00
  -4.989e-01  -2.439e-02   0.000e+00
  -4.989e-01   2.439e-02   0.000e+00
  -4.989e-01  -2.439e-02   0.000e+00
  -4.989e-01   2.439e-02   0.000e+00
   4.989e-01  -2.439e-02   0.000e+00
   4.989e-01   2.439e-02   0.000e+00
   4.989e-01  -2.439e-02   0.000e+00
   4.989e-01   2.439e-02   0.000e+00
  -4.989e-01   2.439e-02   0.000e+00
  -4.941e-01   7.317e-02   0.000e+00
  -4.989e-01   2.439e-02   0.000e+00
  -4.941e-01   7.317e-02   0.000e+00
   4.989e-01   2.439e-02   0.000e+00
   4.941e-01   7.317e-02   0.000e+00
   4.989e-01   2.439e-02   0.000e+00
   4.941e-01   7.317e-02   0.000e+00
  -4.941e-01   7.317e-02   0.000e+00
  -4.843e-01   1.220e-01   0.000e+00
  -4.941e-01   7.317e-02   0.000e+00
  -4.843e-01   1.220e-01   0.000e+00
   4.941e-01   7.317e-02   0.000e+00
   4.843e-01   1.220e-01   0.000e+00
   4.941e-01   7.317e-02   0.000e+00
   4.843e-01   1.220e-01   0.000e+00
  -4.843e-01   1.220e-01   0.000e+00
  -4.697e-01   1.707e-01   0.000e+00
  -4.843e-01   1.220e-01   0.000e+00
  -4.697e-01   1.707e-01   0.000e+00
   4.843e-01   1.220e-01   0.000e+00
   4.697e-01   1.707e-01   0.000e+00
   4.843e-01   1.220e-01   0.000e+00
   4.697e-01   1.707e-01   0.000e+00
  -4.697e-01   1.707e-01   0.000e+00
  -4.634e-01   1.864e-01   0.000e+00
  -4.697e-01   1.707e-01   0.000e+00
  -4.634e-01   1.864e-01   0.000e+00
  -4.634e-01   1.864e-01   0.000e+00
  -4.487e-01   2.195e-01   0.000e+00
  -4.634e-01   1.864e-01   0.000e+00
  -4.487e-01   2.195e-01   0.000e+00
   4.634e-01   1.864e-01   0.000e+00
   4.487e-01   2.195e-01   0.000e+00
   4.634e-01   1.864e-01   0.000e+00
   4.487e-01   2.195e-01   0.000e+00
   4.697e-01   1.707e-01   0.000e+00
   4.634e-01   1.864e-01   0.000e+00
   4.697e-01   1.707e-01   0.000e+00
   4.634e-01   1.864e-01   0.000e+00
  -4.487e-01   2.195e-01   0.000e+00
  -4.216e-01   2.683e-01   0.000e+00
  -4.487e-01   2.195e-01   0.000e+00
  -4.216e-01   2.683e-01   0.000e+00
   4.487e-01   2.195e-01   0.000e+00
   4.216e-01   2.683e-01   0.000e+00
   4.487e-01   2.195e-01   0.000e+00
   4.216e-01   2.683e-01   0.000e+00
  -4.216e-01   2.683e-01   0.000e+00
  -4.146e-01   2.787e-01   0.000e+00
  -4.216e-01   2.683e-01   0.000e+00
  -4.146e-01   2.787e-01   0.000e+00
  -4.146e-01   2.787e-01   0.000e+00
  -3.859e-01   3.171e-01   0.000e+00
  -4.146e-01   2.787e-01   0.000e+00
  -3.859e-01   3.171e-01   0.000e+00
   4.146e-01   2.787e-01   0.000e+00
   3.859e-01   3.171e-01   0.000e+00
   4.146e-01   2.787e-01   0.000e+00
   3.859e-01   3.171e-01   0.000e+00
   4.216e-01   2.683e-01   0.000e+00
   4.146e-01   2.787e-01   0.000e+00
   4.216e-01   2.683e-01   0.000e+00
   4.146e-01   2.787e-01   0.000e+00
  -3.859e-01   3.171e-01   0.000e+00
  -3.659e-01   3.399e-01   0.000e+00
  -3.859e-01   3.171e-01   0.000e+00
  -3.659e-01   3.399e-01   0.000e+00
  -3.659e-01   3.399e-01   0.000e+00
  -3.399e-01   3.659e-01   0.000e+00
  -3.659e-01   3.399e-01   0.000e+00
  -3.399e-01   3.659e-01   0.000e+00
   3.659e-01   3.399e-01   0.000e+00
   3.399e-01   3.659e-01   0.000e+00
   3.659e-01   3.399e-01   0.000e+00
   3.399e-01   3.659e-01   0.000e+00
   3.859e-01   3.171e-01   0.000e+00
   3.659e-01   3.399e-01   0.000e+00
   3.859e-01   3.171e-01   0.000e+00
   3.659e-01   3.399e-01   0.000e+00
  -3.399e-01   3.659e-01   0.000e+00
  -3.171e-01   3.859e-01   0.000e+00
  -3.399e-01   3.659e-01   0.000e+00
  -3.171e-01   3.859e-01   0.000e+00
  -3.171e-01   3.859e-01   0.000e+00
  -2.787e-01   4.146e-01   0.000e+00
  -3.171e-01   3.859e-01   0.000e+00
  -2.787e-01   4.146e-01   0.000e+00
   3.171e-01   3.859e-01   0.000e+00
   2.787e-01   4.146e-01   0.000e+00
   3.171e-01   3.859e-01   0.000e+00
   2.787e-01   4.146e-01   0.000e+00
   3.399e-01   3.659e-01   0.000e+00
   3.171e-01   3.859e-01   0.000e+00
   3.399e-01   3.659e-01   0.000e+00
   3.171e-01   3.859e-01   0.000e+00
  -2.787e-01   4.146e-01   0.000e+00
  -2.683e-01   4.216e-01   0.000e+00
  -2.787e-01   4.146e-01   0.000e+00
  -2.683e-01   4.216e-01   0.000e+00
  -2.683e-01   4.216e-01   0.000e+00
  -2.195e-01   4.487e-01   0.000e+00
  -2.683e-01   4.216e-01   0.000e+00
  -2.195e-01   4.487e-01   0.000e+00
  -2.195e-01   4.487e-01   0.000e+00
  -1.864e-01   4.634e-01   0.000e+00
  -2.195e-01   4.487e-01   0.000e+00
  -1.864e-01   4.634e-01   0.000e+00
   2.195e-01   4.487e-01   0.000e+00
   1.864e-01   4.634e-01   0.000e+00
   2.195e-01   4.487e-01   0.000e+00
   1.864e-01   4.634e-01   0.000e+00
   2.195e-01   4.487e-01   0.000e+00
   2.683e-01   4.216e-01   0.000e+00
   2.195e-01   4.487e-01   0.000e+00
   2.683e-01   4.216e-01   0.000e+00
   2.787e-01   4.146e-01   0.000e+00
   2.683e-01   4.216e-01   0.000e+00
   2.787e-01   4.146e-01   0.000e+00
   2.683e-01   4.216e-01   0.000e+00
  -1.864e-01   4.634e-01   0.000e+00
  -1.707e-01   4.697e-01   0.000e+00
  -1.864e-01   4.634e-01   0.000e+00
  -1.707e-01   4.697e-01   0.000e+00
  -1.707e-01   4.697e-01   0.000e+00
  -1.220e-01   4.843e-01   0.000e+00
  -1.707e-01   4.697e-01   0.000e+00
  -1.220e-01   4.843e-01   0.000e+00
  -1.220e-01   4.843e-01   0.000e+00
  -7.317e-02   4.941e-01   0.000e+00
  -1.220e-01   4.843e-01   0.000e+00
  -7.317e-02   4.941e-01   0.000e+00
  -7.317e-02   4.941e-01   0.000e+00
  -2.439e-02   4.989e-01   0.000e+00
  -7.317e-02   4.941e-01   0.000e+00
  -2.439e-02   4.989e-01   0.000e+00
  -2.439e-02   4.989e-01   0.000e+00
   2.439e-02   4.989e-01   0.000e+00
  -2.439e-02   4.989e-01   0.000e+00
   2.439e-02   4.989e-01   0.000e+00
   2.439e-02   4.989e-01   0.000e+00
   7.317e-02   4.941e-01   0.000e+00
   2.439e-02   4.989e-01   0.000e+00
   7.317e-02   4.941e-01   0.000e+00
   7.317e-02   4.941e-01   0.000e+00
   1.220e-01   4.843e-01   0.000e+00
   7.317e-02   4.941e-01   0.000e+00
   1.220e-01   4.843e-01   0.000e+00
   1.220e-01   4.843e-01   0.000e+00
   1.707e-01   4.697e-01   0.000e+00
   1.220e-01   4.843e-01   0.000e+00
   1.707e-01   4.697e-01   0.000e+00
   1.864e-01   4.634e-01   0.000e+00
   1.707e-01   4.697e-01   0.000e+00
   1.864e-01   4.634e-01   0.000e+00
   1.707e-01   4.697e-01   0.000e+00

CELLS 160 480
         2         0         1
         2         2         3
         2         4         5
         2         6         7
         2         8         9
         2        10        11
         2        12        13
         2        14        15
         2        16        17
         2        18        19
         2        20        21
         2        22        23
         2        24        25
         2        26        27
         2        28        29
         2        30        31
         2        32        33
         2        34        35
         2        36        37
         2        38        39
         2        40        41
         2        42        43
         2        44        45
         2        46        47
         2        48        49
         2        50        51
         2        52        53
         2        54        55
         2        56        57
         2        58        59
         2        60        61
         2        62        63
         2        64        65
         2        66        67
         2        68        69
         2        70        71
         2        72        73
         2        74        75
         2        76        77
         2        78        79
         2        80        81
         2        82        83
         2        84        85
         2        86        87
         2        88        89
         2        90        91
         2        92        93
         2        94        95
         2        96        97
         2        98        99
         2       100       101
         2       102       103
         2       104       105
         2       106       107
         2       108       109
         2       110       111
         2       112       113
         2       114       115
         2       116       117
         2       118       119
         2       120       121
         2       122       123
         2       124       125
         2       126       127
         2       128       129
         2       130       131
         2       132       133
         2       134       135
         2       136       137
         2       138       139
         2       140       141
         2       142       143
         2       144       145
         2       146       147
         2       148       149
         2       150       151
         2       152       153
         2       154       155
         2       156       157
         2       158       159
         2       160       161
         2       162       163
         2       164       165
         2       166       167
         2       168       169
         2       170       171
         2       172       173
         2       174       175
         2       176       177
         2       178       179
         2       180       181
         2       182       183
         2       184       185
         2       186       187
         2       188       189
         2       190       191
         2       192       193
         2       194       195
         2       196       197
         2       198       199
         2       200       201
         2       202       203
         2       204       205
         2       206       207
         2       208       209
         2       210       211
         2       212       213
         2       214       215
         2       216       217
         2       218       219
         2       220       221
         2       222       223
         2       224       225
         2       226       227
         2       228       229
         2       230       231
         2       232       233
         2       234       235
         2       236       237
         2       238       239
         2       240       241
         2       242       243
         2       244       245
         2       246       247
         2       248       249
         2       250       251
         2       252       253
         2       254       255
         2       256       257
         2       258       259
         2       260       261
         2       262       263
         2       264       265
         2       266       267
         2       268       269
         2       270       271
         2       272       273
         2       274       275
         2       276       277
         2       278       279
         2       280       281
         2       282       283
         2       284       285
         2       286       287
         2       288       289
         2       290       291
         2       292       293
         2       294       295
         2       296       297
         2       298       299
         2       300       301
         2       302       303
         2       304       305
         2       306       307
         2       308       309
         2       310       311
         2       312       313
         2       314       315
         2       316       317
         2       318       319

CELL_TYPES 160
   3
   3
   3
   3
   3
   3
   3
   3
   3
   3
   3
   3
   3
   3
   3
   3
   3
   3
   3
   3
   3
   3
   3
   3
   3
   3
   3
   3
   3
   3
   3
   3
   3
   3
   3
   3
   3
   3
   3
   3
   3
   3
   3
   3
   3
   3
   3
   3
   3
   3
   3
   3
   3
   3
   3
   3
   3
   3
   3
   3
   3
   3
   3
   3
   3
   3
   3
   3
   3
   3
   3
   3
   3
   3
   3
   3
   3
   3
   3
   3
   3
   3
   3
   3
   3
   3
   3
   3
   3
   3
   3
   3
   3
   3
   3
   3
   3
   3
   3
   3
   3
   3
   3
   3
   3
   3
   3
   3
   3
   3
   3
   3
   3
   3
   3
   3
   3
   3
   3
   3
   3
   3
   3
   3
   3
   3
   3
   3
   3
   3
   3
   3
   3
   3
   3
   3
   3
   3
   3
   3
   3
   3
   3
   3
   3
   3
   3
   3
   3
   3
   3
   3
   3
   3
   3
   3
   3
   3
   3
   3

CELL_DATA 160
VECTORS normal float
  -3.714e-01  -9.285e-01   0.000e+00
   3.714e-01   9.285e-01   0.000e+00
  -2.873e-01  -9.578e-01   0.000e+00
   2.873e-01   9.578e-01   0.000e+00
  -1.961e-01  -9.806e-01   0.000e+00
   1.961e-01   9.806e-01   0.000e+00
  -9.950e-02  -9.950e-01   0.000e+00
   9.950e-02   9.950e-01   0.000e+00
   0.000e+00  -1.000e+00   0.000e+00
  -0.000e+00   1.000e+00   0.000e+00
   9.950e-02  -9.950e-01   0.000e+00
  -9.950e-02   9.950e-01   0.000e+00
   1.961e-01  -9.806e-01   0.000e+00
  -1.961e-01   9.806e-01   0.000e+00
   2.873e-01  -9.578e-01   0.000e+00
  -2.873e-01   9.578e-01   0.000e+00
   3.714e-01  -9.285e-01   0.000e+00
  -3.714e-01   9.285e-01   0.000e+00
  -5.547e-01  -8.321e-01   0.000e+00
   5.547e-01   8.321e-01   0.000e+00
  -4.856e-01  -8.742e-01   0.000e+00
   4.856e-01   8.742e-01   0.000e+00
  -4.061e-01  -9.138e-01   0.000e+00
   4.061e-01   9.138e-01   0.000e+00
   4.061e-01  -9.138e-01   0.000e+00
  -4.061e-01   9.138e-01   0.000e+00
   4.856e-01  -8.742e-01   0.000e+00
  -4.856e-01   8.742e-01   0.000e+00
   5.547e-01  -8.321e-01   0.000e+00
  -5.547e-01   8.321e-01   0.000e+00
  -6.585e-01  -7.526e-01   0.000e+00
   6.585e-01   7.526e-01   0.000e+00
  -6.000e-01  -8.000e-01   0.000e+00
   6.000e-01   8.000e-01   0.000e+00
   6.000e-01  -8.000e-01   0.000e+00
  -6.000e-01   8.000e-01   0.000e+00
   6.585e-01  -7.526e-01   0.000e+00
  -6.585e-01   7.526e-01   0.000e+00
  -7.526e-01  -6.585e-01   0.000e+00
   7.526e-01   6.585e-01   0.000e+00
  -7.071e-01  -7.071e-01   0.000e+00
   7.071e-01   7.071e-01   0.000e+00
   7.071e-01  -7.071e-01   0.000e+00
  -7.071e-01   7.071e-01   0.000e+00
   7.526e-01  -6.585e-01   0.000e+00
  -7.526e-01   6.585e-01   0.000e+00
  -8.321e-01  -5.547e-01   0.000e+00
   8.321e-01   5.547e-01   0.000e+00
  -8.000e-01  -6.000e-01   0.000e+00
   8.000e-01   6.000e-01   0.000e+00
   8.000e-01  -6.000e-01   0.000e+00
  -8.000e-01   6.000e-01   0.000e+00
   8.321e-01  -5.547e-01   0.000e+00
  -8.321e-01   5.547e-01   0.000e+00
  -8.742e-01  -4.856e-01   0.000e+00
   8.742e-01   4.856e-01   0.000e+00
   8.742e-01  -4.856e-01   0.000e+00
  -8.742e-01   4.856e-01   0.000e+00
  -9.285e-01  -3.714e-01   0.000e+00
   9.285e-01   3.714e-01   0.000e+00
  -9.138e-01  -4.061e-01   0.000e+00
   9.138e-01   4.061e-01   0.000e+00
   9.138e-01  -4.061e-01   0.000e+00
  -9.138e-01   4.061e-01   0.000e+00
   9.285e-01  -3.714e-01   0.000e+00
  -9.285e-01   3.714e-01   0.000e+00
  -9.578e-01  -2.873e-01   0.000e+00
   9.578e-01   2.873e-01   0.000e+00
   9.578e-01  -2.873e-01   0.000e+00
  -9.578e-01   2.873e-01   0.000e+00
  -9.806e-01  -1.961e-01   0.000e+00
   9.806e-01   1.961e-01   0.000e+00
   9.806e-01  -1.961e-01   0.000e+00
  -9.806e-01   1.961e-01   0.000e+00
  -9.950e-01  -9.950e-02   0.000e+00
   9.950e-01   9.950e-02   0.000e+00
   9.950e-01  -9.950e-02   0.000e+00
  -9.950e-01   9.950e-02   0.000e+00
  -1.000e+00   7.290e-16   0.000e+00
   1.000e+00  -7.290e-16   0.000e+00
   1.000e+00   7.290e-16   0.000e+00
  -1.000e+00  -7.290e-16   0.000e+00
  -9.950e-01   9.950e-02   0.000e+00
   9.950e-01  -9.950e-02   0.000e+00
   9.950e-01   9.950e-02   0.000e+00
  -9.950e-01  -9.950e-02   0.000e+00
  -9.806e-01   1.961e-01   0.000e+00
   9.806e-01  -1.961e-01   0.000e+00
   9.806e-01   1.961e-01   0.000e+00
  -9.806e-01  -1.961e-01   0.000e+00
  -9.578e-01   2.873e-01   0.000e+00
   9.578e-01  -2.873e-01   0.000e+00
   9.578e-01   2.873e-01   0.000e+00
  -9.578e-01  -2.873e-01   0.000e+00
  -9.285e-01   3.714e-01   0.000e+00
   9.285e-01  -3.714e-01   0.000e+00
  -9.138e-01   4.061e-01   0.000e+00
   9.138e-01  -4.061e-01   0.000e+00
   9.138e-01   4.061e-01   0.000e+00
  -9.138e-01  -4.061e-01   0.000e+00
   9.285e-01   3.714e-01   0.000e+00
  -9.285e-01  -3.714e-01   0.000e+00
  -8.742e-01   4.856e-01   0.000e+00
   8.742e-01  -4.856e-01   0.000e+00
   8.742e-01   4.856e-01   0.000e+00
  -8.742e-01  -4.856e-01   0.000e+00
  -8.321e-01   5.547e-01   0.000e+00
   8.321e-01  -5.547e-01   0.000e+00
  -8.000e-01   6.000e-01   0.000e+00
   8.000e-01  -6.000e-01   0.000e+00
   8.000e-01   6.000e-01   0.000e+00
  -8.000e-01  -6.000e-01   0.000e+00
   8.321e-01   5.547e-01   0.000e+00
  -8.321e-01  -5.547e-01   0.000e+00
  -7.526e-01   6.585e-01   0.000e+00
   7.526e-01  -6.585e-01   0.000e+00
  -7.071e-01   7.071e-01   0.000e+00
   7.071e-01  -7.071e-01   0.000e+00
   7.071e-01   7.071e-01   0.000e+00
  -7.071e-01  -7.071e-01   0.000e+00
   7.526e-01   6.585e-01   0.000e+00
  -7.526e-01  -6.585e-01   0.000e+00
  -6.585e-01   7.526e-01   0.000e+00
   6.585e-01  -7.526e-01   0.000e+00
  -6.000e-01   8.000e-01   0.000e+00
   6.000e-01  -8.000e-01   0.000e+00
   6.000e-01   8.000e-01   0.000e+00
  -6.000e-01  -8.000e-01   0.000e+00
   6.585e-01   7.526e-01   0.000e+00
  -6.585e-01  -7.526e-01   0.000e+00
  -5.547e-01   8.321e-01   0.000e+00
   5.547e-01  -8.321e-01   0.000e+00
  -4.856e-01   8.742e-01   0.000e+00
   4.856e-01  -8.742e-01   0.000e+00
  -4.061e-01   9.138e-01   0.000e+00
   4.061e-01  -9.138e-01   0.000e+00
   4.061e-01   9.138e-01   0.000e+00
  -4.061e-01  -9.138e-01   0.000e+00
   4.856e-01   8.742e-01   0.000e+00
  -4.856e-01  -8.742e-01   0.000e+00
   5.547e-01   8.321e-01   0.000e+00
  -5.547e-01  -8.321e-01   0.000e+00
  -3.714e-01   9.285e-01   0.000e+00
   3.714e-01  -9.285e-01   0.000e+00
  -2.873e-01   9.578e-01   0.000e+00
   2.873e-01  -9.578e-01   0.000e+00
  -1.961e-01   9.806e-01   0.000e+00
   1.961e-01  -9.806e-01   0.000e+00
  -9.950e-02   9.950e-01   0.000e+00
   9.950e-02  -9.950e-01   0.000e+00
   0.000e+00   1.000e+00   0.000e+00
  -0.000e+00  -1.000e+00   0.000e+00
   9.950e-02   9.950e-01   0.000e+00
  -9.950e-02  -9.950e-01   0.000e+00
   1.961e-01   9.806e-01   0.000e+00
  -1.961e-01  -9.806e-01   0.000e+00
   2.873e-01   9.578e-01   0.000e+00
  -2.873e-01  -9.578e-01   0.000e+00
   3.714e-01   9.285e-01   0.000e+00
  -3.714e-01  -9.285e-01   0.000e+00

POINT_DATA 320
VECTORS displacement float
   9.996e-01   0.000e+00   0.000e+00
   9.998e-01   0.000e+00   0.000e+00
   9.997e-01   0.000e+00   0.000e+00
   1.000e+00   0.000e+00   0.000e+00
   9.996e-01   0.000e+00   0.000e+00
   9.992e-01   0.000e+00   0.000e+00
   9.997e-01   0.000e+00   0.000e+00
   9.997e-01   0.000e+00   0.000e+00
   9.992e-01   0.000e+00   0.000e+00
   9.993e-01   0.000e+00   0.000e+00
   9.997e-01   0.000e+00   0.000e+00
   9.996e-01   0.000e+00   0.000e+00
   9.993e-01   0.000e+00   0.000e+00
   9.995e-01   0.000e+00   0.000e+00
   9.996e-01   0.000e+00   0.000e+00
   9.996e-01   0.000e+00   0.000e+00
   9.995e-01   0.000e+00   0.000e+00
   9.995e-01   0.000e+00   0.000e+00
   9.996e-01   0.000e+00   0.000e+00
   9.996e-01   0.000e+00   0.000e+00
   9.995e-01   0.000e+00   0.000e+00
   9.993e-01   0.000e+00   0.000e+00
   9.996e-01   0.000e+00   0.000e+00
   9.996e-01   0.000e+00   0.000e+00
   9.993e-01   0.000e+00   0.000e+00
   9.992e-01   0.000e+00   0.000e+00
   9.996e-01   0.000e+00   0.000e+00
   9.997e-01   0.000e+00   0.000e+00
   9.992e-01   0.000e+00   0.000e+00
   9.996e-01   0.000e+00   0.000e+00
   9.997e-01   0.000e+00   0.000e+00
   9.997e-01   0.000e+00   0.000e+00
   9.996e-01   0.000e+00   0.000e+00
   9.998e-01   0.000e+00   0.000e+00
   9.997e-01   0.000e+00   0.000e+00
   1.000e+00   0.000e+00   0.000e+00
   9.996e-01   0.000e+00   0.000e+00
   9.998e-01   0.000e+00   0.000e+00
   1.000e+00   0.000e+00   0.000e+00
   1.000e+00   0.000e+00   0.000e+00
   9.996e-01   0.000e+00   0.000e+00
   9.997e-01   0.000e+00   0.000e+00
   1.000e+00   0.000e+00   0.000e+00
   1.000e+00   0.000e+00   0.000e+00
   9.998e-01   0.000e+00   0.000e+00
   9.997e-01   0.000e+00   0.000e+00
   1.000e+00   0.000e+00   0.000e+00
   1.000e+00   0.000e+00   0.000e+00
   9.998e-01   0.000e+00   0.000e+00
   9.997e-01   0.000e+00   0.000e+00
   1.000e+00   0.000e+00   0.000e+00
   1.000e+00   0.000e+00   0.000e+00
   9.997e-01   0.000e+00   0.000e+00
   9.996e-01   0.000e+00   0.000e+00
   1.000e+00   0.000e+00   0.000e+00
   1.000e+00   0.000e+00   0.000e+00
   9.996e-01   0.000e+00   0.000e+00
   9.998e-01   0.000e+00   0.000e+00
   1.000e+00   0.000e+00   0.000e+00
   1.000e+00   0.000e+00   0.000e+00
   9.995e-01   0.000e+00   0.000e+00
   9.997e-01   0.000e+00   0.000e+00
   9.998e-01   0.000e+00   0.000e+00
   1.000e+00   0.000e+00   0.000e+00
   9.998e-01   0.000e+00   0.000e+00
   9.995e-01   0.000e+00   0.000e+00
   1.000e+00   0.000e+00   0.000e+00
   9.998e-01   0.000e+00   0.000e+00
   9.998e-01   0.000e+00   0.000e+00
   9.995e-01   0.000e+00   0.000e+00
   1.000e+00   0.000e+00   0.000e+00
   9.998e-01   0.000e+00   0.000e+00
   9.995e-01   0.000e+00   0.000e+00
   9.997e-01   0.000e+00   0.000e+00
   9.998e-01   0.000e+00   0.000e+00
   1.000e+00   0.000e+00   0.000e+00
   9.997e-01   0.000e+00   0.000e+00
   9.995e-01   0.000e+00   0.000e+00
   1.000e+00   0.000e+00   0.000e+00
   9.998e-01   0.000e+00   0.000e+00
   9.997e-01   0.000e+00   0.000e+00
   9.997e-01   0.000e+00   0.000e+00
   1.000e+00   0.000e+00   0.000e+00
   1.000e+00   0.000e+00   0.000e+00
   9.997e-01   0.000e+00   0.000e+00
   9.997e-01   0.000e+00   0.000e+00
   1.000e+00   0.000e+00   0.000e+00
   1.000e+00   0.000e+00   0.000e+00
   9.997e-01   0.000e+00   0.000e+00
   9.995e-01   0.000e+00   0.000e+00
   1.000e+00   0.000e+00   0.000e+00
   9.998e-01   0.000e+00   0.000e+00
   9.998e-01   0.000e+00   0.000e+00
   9.996e-01   0.000e+00   0.000e+00
   1.000e+00   0.000e+00   0.000e+00
   1.000e+00   0.000e+00   0.000e+00
   9.995e-01   0.000e+00   0.000e+00
   9.998e-01   0.000e+00   0.000e+00
   9.998e-01   0.000e+00   0.000e+00
   1.000e+00   0.000e+00   0.000e+00
   9.995e-01   0.000e+00   0.000e+00
   9.998e-01   0.000e+00   0.000e+00
   9.998e-01   0.000e+00   0.000e+00
   1.000e+00   0.000e+00   0.000e+00
   9.998e-01   0.000e+00   0.000e+00
   9.996e-01   0.000e+00   0.000e+00
   1.000e+00   0.000e+00   0.000e+00
   1.000e+00   0.000e+00   0.000e+00
   9.996e-01   0.000e+00   0.000e+00
   9.997e-01   0.000e+00   0.000e+00
   1.000e+00   0.000e+00   0.000e+00
   1.000e+00   0.000e+00   0.000e+00
   9.996e-01   0.000e+00   0.000e+00
   9.997e-01   0.000e+00   0.000e+00
   1.000e+00   0.000e+00   0.000e+00
   1.000e+00   0.000e+00   0.000e+00
   9.998e-01   0.000e+00   0.000e+00
   9.996e-01   0.000e+00   0.000e+00
   1.000e+00   0.000e+00   0.000e+00
   9.997e-01   0.000e+00   0.000e+00
   9.997e-01   0.000e+00   0.000e+00
   9.998e-01   0.000e+00   0.000e+00
   1.000e+00   0.000e+00   0.000e+00
   1.000e+00   0.000e+00   0.000e+00
   9.997e-01   0.000e+00   0.000e+00
   9.998e-01   0.000e+00   0.000e+00
   1.000e+00   0.000e+00   0.000e+00
   1.000e+00   0.000e+00   0.000e+00
   9.998e-01   0.000e+00   0.000e+00
   9.996e-01   0.000e+00   0.000e+00
   1.000e+00   0.000e+00   0.000e+00
   9.997e-01   0.000e+00   0.000e+00
   9.996e-01   0.000e+00   0.000e+00
   9.992e-01   0.000e+00   0.000e+00
   9.997e-01   0.000e+00   0.000e+00
   9.997e-01   0.000e+00   0.000e+00
   9.996e-01   0.000e+00   0.000e+00
   9.992e-01   0.000e+00   0.000e+00
   9.997e-01   0.000e+00   0.000e+00
   9.997e-01   0.000e+00   0.000e+00
   9.992e-01   0.000e+00   0.000e+00
   9.993e-01   0.000e+00   0.000e+00
   9.997e-01   0.000e+00   0.000e+00
   9.996e-01   0.000e+00   0.000e+00
   9.992e-01   0.000e+00   0.000e+00
   9.993e-01   0.000e+00   0.000e+00
   9.997e-01   0.000e+00   0.000e+00
   9.996e-01   0.000e+00   0.000e+00
   9.993e-01   0.000e+00   0.000e+00
   9.995e-01   0.000e+00   0.000e+00
   9.996e-01   0.000e+00   0.000e+00
   9.996e-01   0.000e+00   0.000e+00
   9.993e-01   0.000e+00   0.000e+00
   9.995e-01   0.000e+00   0.000e+00
   9.996e-01   0.000e+00   0.000e+00
   9.996e-01   0.000e+00   0.000e+00
   9.995e-01   0.000e+00   0.000e+00
   9.995e-01   0.000e+00   0.000e+00
   9.996e-01   0.000e+00   0.000e+00
   9.996e-01   0.000e+00   0.000e+00
   9.995e-01   0.000e+00   0.000e+00
   9.995e-01   0.000e+00   0.000e+00
   9.996e-01   0.000e+00   0.000e+00
   9.996e-01   0.000e+00   0.000e+00
   9.995e-01   0.000e+00   0.000e+00
   9.993e-01   0.000e+00   0.000e+00
   9.996e-01   0.000e+00   0.000e+00
   9.996e-01   0.000e+00   0.000e+00