# vtk DataFile Version 2.0
Interface mesh generated by generateVTK.m
ASCII
DATASET UNSTRUCTURED_GRID

POINTS 8 float
  -1.000e-01  -5.000e-01   0.000e+00
  -1.000e-01   1.000e-01   0.000e+00
  -1.000e-01  -5.000e-01   0.000e+00
  -1.000e-01   1.000e-01   0.000e+00
  -1.000e-01   1.000e-01   0.000e+00
  -1.000e-01   5.000e-01   0.000e+00
  -1.000e-01   1.000e-01   0.000e+00
  -1.000e-01   5.000e-01   0.000e+00

CELLS 4 12
         2         0         1
         2         2         3
         2         4         5
         2         6         7

CELL_TYPES 4
   3
   3
   3
   3

CELL_DATA 4
VECTORS normal float
   1.000e+00   0.000e+00   0.000e+00
  -1.000e+00  -0.000e+00   0.000e+00
   1.000e+00   0.000e+00   0.000e+00
  -1.000e+00  -0.000e+00   0.000e+00

POINT_DATA 8
VECTORS displacement float
   1.000e-04  -2.500e-04   0.000e+00
  -5.000e-04  -2.500e-04   0.000e+00
   1.000e-04  -2.500e-04   0.000e+00
  -5.000e-04  -2.500e-04   0.000e+00
  -5.000e-04  -2.500e-04   0.000e+00
  -1.000e-04  -2.500e-04   0.000e+00
  -5.000e-04  -2.500e-04   0.000e+00
  -1.000e-04  -2.500e-04   0.000e+00

